
                                 *****************
                                 * O   R   C   A *
                                 *****************

                                            #,                                       
                                            ###                                      
                                            ####                                     
                                            #####                                    
                                            ######                                   
                                           ########,                                 
                                     ,,################,,,,,                         
                               ,,#################################,,                 
                          ,,##########################################,,             
                       ,#########################################, ''#####,          
                    ,#############################################,,   '####,        
                  ,##################################################,,,,####,       
                ,###########''''           ''''###############################       
              ,#####''   ,,,,##########,,,,          '''####'''          '####       
            ,##' ,,,,###########################,,,                        '##       
           ' ,,###''''                  '''############,,,                           
         ,,##''                                '''############,,,,        ,,,,,,###''
      ,#''                                            '''#######################'''  
     '                                                          ''''####''''         
             ,#######,   #######,   ,#######,      ##                                
            ,#'     '#,  ##    ##  ,#'     '#,    #''#        ######   ,####,        
            ##       ##  ##   ,#'  ##            #'  '#       #        #'  '#        
            ##       ##  #######   ##           ,######,      #####,   #    #        
            '#,     ,#'  ##    ##  '#,     ,#' ,#      #,         ##   #,  ,#        
             '#######'   ##     ##  '#######'  #'      '#     #####' # '####'        



                  #######################################################
                  #                        -***-                        #
                  #          Department of theory and spectroscopy      #
                  #    Directorship and core code : Frank Neese         #
                  #        Max Planck Institute fuer Kohlenforschung    #
                  #                Kaiser Wilhelm Platz 1               #
                  #                 D-45470 Muelheim/Ruhr               #
                  #                      Germany                        #
                  #                                                     #
                  #                  All rights reserved                #
                  #                        -***-                        #
                  #######################################################


                         Program Version 5.0.4 -  RELEASE  -


 With contributions from (in alphabetic order):
   Daniel Aravena         : Magnetic Suceptibility
   Michael Atanasov       : Ab Initio Ligand Field Theory (pilot matlab implementation)
   Alexander A. Auer      : GIAO ZORA, VPT2 properties, NMR spectrum
   Ute Becker             : Parallelization
   Giovanni Bistoni       : ED, misc. LED, open-shell LED, HFLD
   Martin Brehm           : Molecular dynamics
   Dmytro Bykov           : SCF Hessian
   Vijay G. Chilkuri      : MRCI spin determinant printing, contributions to CSF-ICE
   Dipayan Datta          : RHF DLPNO-CCSD density
   Achintya Kumar Dutta   : EOM-CC, STEOM-CC
   Dmitry Ganyushin       : Spin-Orbit,Spin-Spin,Magnetic field MRCI
   Miquel Garcia          : C-PCM and meta-GGA Hessian, CC/C-PCM, Gaussian charge scheme
   Yang Guo               : DLPNO-NEVPT2, F12-NEVPT2, CIM, IAO-localization
   Andreas Hansen         : Spin unrestricted coupled pair/coupled cluster methods
   Benjamin Helmich-Paris : MC-RPA, TRAH-SCF, COSX integrals
   Lee Huntington         : MR-EOM, pCC
   Robert Izsak           : Overlap fitted RIJCOSX, COSX-SCS-MP3, EOM
   Marcus Kettner         : VPT2
   Christian Kollmar      : KDIIS, OOCD, Brueckner-CCSD(T), CCSD density, CASPT2, CASPT2-K
   Simone Kossmann        : Meta GGA functionals, TD-DFT gradient, OOMP2, MP2 Hessian
   Martin Krupicka        : Initial AUTO-CI
   Lucas Lang             : DCDCAS
   Marvin Lechner         : AUTO-CI (C++ implementation), FIC-MRCC
   Dagmar Lenk            : GEPOL surface, SMD
   Dimitrios Liakos       : Extrapolation schemes; Compound Job, initial MDCI parallelization
   Dimitrios Manganas     : Further ROCIS development; embedding schemes
   Dimitrios Pantazis     : SARC Basis sets
   Anastasios Papadopoulos: AUTO-CI, single reference methods and gradients
   Taras Petrenko         : DFT Hessian,TD-DFT gradient, ASA, ECA, R-Raman, ABS, FL, XAS/XES, NRVS
   Peter Pinski           : DLPNO-MP2, DLPNO-MP2 Gradient
   Christoph Reimann      : Effective Core Potentials
   Marius Retegan         : Local ZFS, SOC
   Christoph Riplinger    : Optimizer, TS searches, QM/MM, DLPNO-CCSD(T), (RO)-DLPNO pert. Triples
   Tobias Risthaus        : Range-separated hybrids, TD-DFT gradient, RPA, STAB
   Michael Roemelt        : Original ROCIS implementation
   Masaaki Saitow         : Open-shell DLPNO-CCSD energy and density
   Barbara Sandhoefer     : DKH picture change effects
   Avijit Sen             : IP-ROCIS
   Kantharuban Sivalingam : CASSCF convergence, NEVPT2, FIC-MRCI
   Bernardo de Souza      : ESD, SOC TD-DFT
   Georgi Stoychev        : AutoAux, RI-MP2 NMR, DLPNO-MP2 response
   Willem Van den Heuvel  : Paramagnetic NMR
   Boris Wezisla          : Elementary symmetry handling
   Frank Wennmohs         : Technical directorship


 We gratefully acknowledge several colleagues who have allowed us to
 interface, adapt or use parts of their codes:
   Stefan Grimme, W. Hujo, H. Kruse, P. Pracht,  : VdW corrections, initial TS optimization,
                  C. Bannwarth, S. Ehlert          DFT functionals, gCP, sTDA/sTD-DF
   Ed Valeev, F. Pavosevic, A. Kumar             : LibInt (2-el integral package), F12 methods
   Garnet Chan, S. Sharma, J. Yang, R. Olivares  : DMRG
   Ulf Ekstrom                                   : XCFun DFT Library
   Mihaly Kallay                                 : mrcc  (arbitrary order and MRCC methods)
   Jiri Pittner, Ondrej Demel                    : Mk-CCSD
   Frank Weinhold                                : gennbo (NPA and NBO analysis)
   Christopher J. Cramer and Donald G. Truhlar   : smd solvation model
   Lars Goerigk                                  : TD-DFT with DH, B97 family of functionals
   V. Asgeirsson, H. Jonsson                     : NEB implementation
   FAccTs GmbH                                   : IRC, NEB, NEB-TS, DLPNO-Multilevel, CI-OPT
                                                   MM, QMMM, 2- and 3-layer-ONIOM, Crystal-QMMM,
                                                   LR-CPCM, SF, NACMEs, symmetry and pop. for TD-DFT,
                                                   nearIR, NL-DFT gradient (VV10), updates on ESD,
                                                   ML-optimized integration grids
   S Lehtola, MJT Oliveira, MAL Marques          : LibXC Library
   Liviu Ungur et al                             : ANISO software


 Your calculation uses the libint2 library for the computation of 2-el integrals
 For citations please refer to: http://libint.valeyev.net

 Your ORCA version has been built with support for libXC version: 5.1.0
 For citations please refer to: https://tddft.org/programs/libxc/

 This ORCA versions uses:
   CBLAS   interface :  Fast vector & matrix operations
   LAPACKE interface :  Fast linear algebra routines
   SCALAPACK package :  Parallel linear algebra routines
   Shared memory     :  Shared parallel matrices
   BLAS/LAPACK       :  OpenBLAS 0.3.15  USE64BITINT DYNAMIC_ARCH NO_AFFINITY SkylakeX SINGLE_THREADED
        Core in use  :  SkylakeX
   Copyright (c) 2011-2014, The OpenBLAS Project


================================================================================

----- Orbital basis set information -----
Your calculation utilizes the basis: def2-SVP
   F. Weigend and R. Ahlrichs, Phys. Chem. Chem. Phys. 7, 3297 (2005).

----- AuxJ basis set information -----
Your calculation utilizes the auxiliary basis: def2/J
   F. Weigend, Phys. Chem. Chem. Phys. 8, 1057 (2006).

================================================================================
                                        WARNINGS
                       Please study these warnings very carefully!
================================================================================


WARNING: Geometry Optimization
  ===> : Switching off AutoStart
         For restart on a previous wavefunction, please use MOREAD

INFO   : the flag for use of the SHARK integral package has been found!

================================================================================
                                       INPUT FILE
================================================================================
NAME = Pyrrole_DFT.inp
|  1> ## avogadro generated ORCA input file 
|  2> # Advanced Mode
|  3> # 
|  4> ! B3LYP OPT def2-SVP NormalPrint defgrid2 NormalSCF 
|  5> 
|  6> ! CPCM
|  7> %cpcm
|  8> epsilon 69.0
|  9> refrac 1.34
| 10> end
| 11> 
| 12> %scf
| 13> 	MaxIter 125
| 14> 	CNVDIIS 1
| 15> 	CNVSOSCF 1 
| 16> end
| 17> 
| 18> * xyz 0 1
| 19>    C       -1.19405        0.00800        0.00106
| 20>    C       -0.37037        1.11158        0.00054
| 21>    N        0.92753        0.67121       -0.00006
| 22>    C        0.94169       -0.69929        0.00007
| 23>    C       -0.36356       -1.13822        0.00075
| 24>    H       -2.27620        0.02619        0.00159
| 25>    H       -0.59577        2.16951        0.00055
| 26>    H        1.74697        1.26493       -0.00052
| 27>    H        1.87677       -1.24302       -0.00034
| 28>    H       -0.68337       -2.17220        0.00101
| 29> *
| 30> 
| 31> 
| 32>                          ****END OF INPUT****
================================================================================

                       *****************************
                       * Geometry Optimization Run *
                       *****************************

Geometry optimization settings:
Update method            Update   .... BFGS
Choice of coordinates    CoordSys .... Z-matrix Internals
Initial Hessian          InHess   .... Almoef's Model

Convergence Tolerances:
Energy Change            TolE     ....  5.0000e-06 Eh
Max. Gradient            TolMAXG  ....  3.0000e-04 Eh/bohr
RMS Gradient             TolRMSG  ....  1.0000e-04 Eh/bohr
Max. Displacement        TolMAXD  ....  4.0000e-03 bohr
RMS Displacement         TolRMSD  ....  2.0000e-03 bohr
Strict Convergence                ....  False
------------------------------------------------------------------------------
                        ORCA OPTIMIZATION COORDINATE SETUP
------------------------------------------------------------------------------

The optimization will be done in new redundant internal coordinates
Making redundant internal coordinates   ...  (new redundants) done
Evaluating the initial hessian          ...  (Almloef) done
Evaluating the coordinates              ...  done
Calculating the B-matrix                .... done
Calculating the G-matrix                .... done
Diagonalizing the G-matrix              .... done
The first mode is                       ....   21
The number of degrees of freedom        ....   24

    -----------------------------------------------------------------
                    Redundant Internal Coordinates


    -----------------------------------------------------------------
         Definition                    Initial Value    Approx d2E/dq
    -----------------------------------------------------------------
      1. B(C   1,C   0)                  1.3771         0.655176   
      2. B(N   2,C   1)                  1.3706         0.600994   
      3. B(C   3,N   2)                  1.3706         0.600993   
      4. B(C   4,C   3)                  1.3771         0.655177   
      5. B(C   4,C   0)                  1.4155         0.569003   
      6. B(H   5,C   0)                  1.0823         0.370427   
      7. B(H   6,C   1)                  1.0817         0.371283   
      8. B(H   7,N   2)                  1.0119         0.429664   
      9. B(H   8,C   3)                  1.0817         0.371285   
     10. B(H   9,C   4)                  1.0823         0.370419   
     11. A(C   1,C   0,H   5)          125.7736         0.357942   
     12. A(C   4,C   0,H   5)          126.8881         0.349493   
     13. A(C   1,C   0,C   4)          107.3383         0.431681   
     14. A(C   0,C   1,H   6)          131.2359         0.358082   
     15. A(C   0,C   1,N   2)          107.9948         0.433095   
     16. A(N   2,C   1,H   6)          120.7692         0.350705   
     17. A(C   3,N   2,H   7)          125.3330         0.356347   
     18. A(C   1,N   2,H   7)          125.3333         0.356347   
     19. A(C   1,N   2,C   3)          109.3337         0.423660   
     20. A(C   4,C   3,H   8)          131.2361         0.358083   
     21. A(N   2,C   3,H   8)          120.7691         0.350705   
     22. A(N   2,C   3,C   4)          107.9948         0.433095   
     23. A(C   3,C   4,H   9)          125.7736         0.357940   
     24. A(C   0,C   4,H   9)          126.8881         0.349492   
     25. A(C   0,C   4,C   3)          107.3383         0.431681   
     26. D(H   6,C   1,C   0,H   5)      0.0007         0.029921   
     27. D(N   2,C   1,C   0,C   4)     -0.0006         0.029921   
     28. D(N   2,C   1,C   0,H   5)   -179.9996         0.029921   
     29. D(H   6,C   1,C   0,C   4)    179.9998         0.029921   
     30. D(C   3,N   2,C   1,H   6)    179.9998         0.029111   
     31. D(H   7,N   2,C   1,C   0)   -179.9995         0.029111   
     32. D(C   3,N   2,C   1,C   0)      0.0000         0.029111   
     33. D(H   7,N   2,C   1,H   6)      0.0002         0.029111   
     34. D(H   8,C   3,N   2,H   7)     -0.0004         0.029111   
     35. D(H   8,C   3,N   2,C   1)    180.0000         0.029111   
     36. D(C   4,C   3,N   2,H   7)   -179.9999         0.029111   
     37. D(C   4,C   3,N   2,C   1)      0.0005         0.029111   
     38. D(H   9,C   4,C   0,C   1)    180.0000         0.022206   
     39. D(C   3,C   4,C   0,H   5)    179.9999         0.022206   
     40. D(C   3,C   4,C   0,C   1)      0.0009         0.022206   
     41. D(H   9,C   4,C   3,H   8)      0.0007         0.029922   
     42. D(H   9,C   4,C   3,N   2)   -179.9999         0.029922   
     43. D(C   0,C   4,C   3,H   8)    179.9998         0.029922   
     44. D(C   0,C   4,C   3,N   2)     -0.0008         0.029922   
     45. D(H   9,C   4,C   0,H   5)     -0.0010         0.022206   
    -----------------------------------------------------------------

Number of atoms                         .... 10
Number of degrees of freedom            .... 45

         *************************************************************
         *                GEOMETRY OPTIMIZATION CYCLE   1            *
         *************************************************************
---------------------------------
CARTESIAN COORDINATES (ANGSTROEM)
---------------------------------
  C     -1.194050    0.008000    0.001060
  C     -0.370370    1.111580    0.000540
  N      0.927530    0.671210   -0.000060
  C      0.941690   -0.699290    0.000070
  C     -0.363560   -1.138220    0.000750
  H     -2.276200    0.026190    0.001590
  H     -0.595770    2.169510    0.000550
  H      1.746970    1.264930   -0.000520
  H      1.876770   -1.243020   -0.000340
  H     -0.683370   -2.172200    0.001010

----------------------------
CARTESIAN COORDINATES (A.U.)
----------------------------
  NO LB      ZA    FRAG     MASS         X           Y           Z
   0 C     6.0000    0    12.011   -2.256427    0.015118    0.002003
   1 C     6.0000    0    12.011   -0.699898    2.100582    0.001020
   2 N     7.0000    0    14.007    1.752778    1.268403   -0.000113
   3 C     6.0000    0    12.011    1.779536   -1.321467    0.000132
   4 C     6.0000    0    12.011   -0.687029   -2.150924    0.001417
   5 H     1.0000    0     1.008   -4.301395    0.049492    0.003005
   6 H     1.0000    0     1.008   -1.125842    4.099780    0.001039
   7 H     1.0000    0     1.008    3.301295    2.390371   -0.000983
   8 H     1.0000    0     1.008    3.546581   -2.348967   -0.000643
   9 H     1.0000    0     1.008   -1.291382   -4.104863    0.001909

--------------------------------
INTERNAL COORDINATES (ANGSTROEM)
--------------------------------
 C      0   0   0     0.000000000000     0.00000000     0.00000000
 C      1   0   0     1.377075825509     0.00000000     0.00000000
 N      2   1   0     1.370573057848   107.99481730     0.00000000
 C      3   2   1     1.370573154742   109.33373288     0.00000000
 C      4   3   2     1.377075731323   107.99482536     0.00000000
 H      1   2   3     1.082302998009   125.77359284   180.00035181
 H      2   1   3     1.081675110650   131.23594471   180.00032395
 H      3   2   1     1.011921718119   125.33325972   180.00045599
 H      4   3   2     1.081673281264   120.76908387   179.99997728
 H      5   4   3     1.082309172141   125.77362329   180.00005511

---------------------------
INTERNAL COORDINATES (A.U.)
---------------------------
 C      0   0   0     0.000000000000     0.00000000     0.00000000
 C      1   0   0     2.602296175855     0.00000000     0.00000000
 N      2   1   0     2.590007725865   107.99481730     0.00000000
 C      3   2   1     2.590007908967   109.33373288     0.00000000
 C      4   3   2     2.602295997871   107.99482536     0.00000000
 H      1   2   3     2.045256260160   125.77359284   180.00035181
 H      2   1   3     2.044069725008   131.23594471   180.00032395
 H      3   2   1     1.912254916211   125.33325972   180.00045599
 H      4   3   2     2.044066267969   120.76908387   179.99997728
 H      5   4   3     2.045267927577   125.77362329   180.00005511

---------------------
BASIS SET INFORMATION
---------------------
There are 3 groups of distinct atoms

 Group   1 Type C   : 7s4p1d contracted to 3s2p1d pattern {511/31/1}
 Group   2 Type N   : 7s4p1d contracted to 3s2p1d pattern {511/31/1}
 Group   3 Type H   : 4s1p contracted to 2s1p pattern {31/1}

Atom   0C    basis set group =>   1
Atom   1C    basis set group =>   1
Atom   2N    basis set group =>   2
Atom   3C    basis set group =>   1
Atom   4C    basis set group =>   1
Atom   5H    basis set group =>   3
Atom   6H    basis set group =>   3
Atom   7H    basis set group =>   3
Atom   8H    basis set group =>   3
Atom   9H    basis set group =>   3
---------------------------------
AUXILIARY/J BASIS SET INFORMATION
---------------------------------
There are 3 groups of distinct atoms

 Group   1 Type C   : 12s5p4d2f1g contracted to 6s4p3d1f1g pattern {711111/2111/211/2/1}
 Group   2 Type N   : 12s5p4d2f1g contracted to 6s4p3d1f1g pattern {711111/2111/211/2/1}
 Group   3 Type H   : 5s2p1d contracted to 3s1p1d pattern {311/2/1}

Atom   0C    basis set group =>   1
Atom   1C    basis set group =>   1
Atom   2N    basis set group =>   2
Atom   3C    basis set group =>   1
Atom   4C    basis set group =>   1
Atom   5H    basis set group =>   3
Atom   6H    basis set group =>   3
Atom   7H    basis set group =>   3
Atom   8H    basis set group =>   3
Atom   9H    basis set group =>   3
------------------------------------------------------------------------------
                           ORCA GTO INTEGRAL CALCULATION
                           -- RI-GTO INTEGRALS CHOSEN --
------------------------------------------------------------------------------
------------------------------------------------------------------------------
                   ___                                                        
                  /   \      - P O W E R E D   B Y -                         
                 /     \                                                     
                 |  |  |   _    _      __       _____    __    __             
                 |  |  |  | |  | |    /  \     |  _  \  |  |  /  |          
                  \  \/   | |  | |   /    \    | | | |  |  | /  /          
                 / \  \   | |__| |  /  /\  \   | |_| |  |  |/  /          
                |  |  |   |  __  | /  /__\  \  |    /   |      \           
                |  |  |   | |  | | |   __   |  |    \   |  |\   \          
                \     /   | |  | | |  |  |  |  | |\  \  |  | \   \       
                 \___/    |_|  |_| |__|  |__|  |_| \__\ |__|  \__/        
                                                                              
                      - O R C A' S   B I G   F R I E N D -                    
                                      &                                       
                       - I N T E G R A L  F E E D E R -                       
                                                                              
 v1 FN, 2020, v2 2021                                                         
------------------------------------------------------------------------------


Reading SHARK input file Pyrrole_DFT.SHARKINP.tmp ... SHARK General Contraction Test:  Segmented basis detected
   -> Pre-screening matrix *NOT* found on disk - recalculating with NShells=45
   -> Leaving CheckPreScreeningMatrix
ok
----------------------
SHARK INTEGRAL PACKAGE
----------------------

Number of atoms                             ...     10
Number of basis functions                   ...     95
Number of shells                            ...     45
Maximum angular momentum                    ...      2
Integral batch strategy                     ... SHARK/LIBINT Hybrid
RI-J (if used) integral strategy            ... SPLIT-RIJ (Revised 2003 algorithm where possible)
Printlevel                                  ...      2
Contraction scheme used                     ... SEGMENTED contraction
Coulomb Range Separation                    ... NOT USED
Exchange Range Separation                   ... NOT USED
Finite Nucleus Model                        ... NOT USED
Auxiliary Coulomb fitting basis             ... AVAILABLE
   # of basis functions in Aux-J            ...    300
   # of shells in Aux-J                     ...    100
   Maximum angular momentum in Aux-J        ...      4
Auxiliary J/K fitting basis                 ... NOT available
Auxiliary Correlation fitting basis         ... NOT available
Auxiliary 'external' fitting basis          ... NOT available
Integral threshold                          ...     2.500000e-11
Primitive cut-off                           ...     2.500000e-12
Primitive pair pre-selection threshold      ...     2.500000e-12

Calculating pre-screening integrals         ... done (  0.1 sec) Dimension = 45
Organizing shell pair data                  ... done (  0.1 sec)
Shell pair information
Total number of shell pairs                 ...      1035
Shell pairs after pre-screening             ...      1030
Total number of primitive shell pairs       ...      3735
Primitive shell pairs kept                  ...      3012
          la=0 lb=0:    320 shell pairs
          la=1 lb=0:    375 shell pairs
          la=1 lb=1:    120 shell pairs
          la=2 lb=0:    125 shell pairs
          la=2 lb=1:     75 shell pairs
          la=2 lb=2:     15 shell pairs

Calculating one electron integrals          ... done (  0.0 sec)
Calculating RI/J V-Matrix + Cholesky decomp.... done (  0.0 sec)
Calculating Nuclear repulsion               ... done (  0.0 sec) ENN=    161.099301320692 Eh

SHARK setup successfully completed in   0.6 seconds

Maximum memory used throughout the entire GTOINT-calculation: 10.8 MB
-------------------------------------------------------------------------------
                                 ORCA SCF
-------------------------------------------------------------------------------

------------
SCF SETTINGS
------------
Hamiltonian:
 Density Functional     Method          .... DFT(GTOs)
 Exchange Functional    Exchange        .... B88
   X-Alpha parameter    XAlpha          ....  0.666667
   Becke's b parameter  XBeta           ....  0.004200
 Correlation Functional Correlation     .... LYP
 LDA part of GGA corr.  LDAOpt          .... VWN-5
 Gradients option       PostSCFGGA      .... off
 Hybrid DFT is turned on
   Fraction HF Exchange ScalHFX         ....  0.200000
   Scaling of DF-GGA-X  ScalDFX         ....  0.720000
   Scaling of DF-GGA-C  ScalDFC         ....  0.810000
   Scaling of DF-LDA-C  ScalLDAC        ....  1.000000
   Perturbative correction              ....  0.000000
   Density functional embedding theory  .... OFF
   NL short-range parameter             ....  4.800000
 RI-approximation to the Coulomb term is turned on
   Number of AuxJ basis functions       .... 300
   RIJ-COSX (HFX calculated with COS-X)).... on


General Settings:
 Integral files         IntName         .... Pyrrole_DFT
 Hartree-Fock type      HFTyp           .... RHF
 Total Charge           Charge          ....    0
 Multiplicity           Mult            ....    1
 Number of Electrons    NEL             ....   36
 Basis Dimension        Dim             ....   95
 Nuclear Repulsion      ENuc            ....    161.0993013207 Eh

Convergence Acceleration:
 DIIS                   CNVDIIS         .... on
   Start iteration      DIISMaxIt       ....    12
   Startup error        DIISStart       ....  0.200000
   # of expansion vecs  DIISMaxEq       ....     5
   Bias factor          DIISBfac        ....   1.050
   Max. coefficient     DIISMaxC        ....  10.000
 Trust-Rad. Augm. Hess. CNVTRAH         .... auto
   Auto Start mean grad. ratio tolernc. ....  1.125000
   Auto Start start iteration           ....    20
   Auto Start num. interpolation iter.  ....    10
   Max. Number of Micro iterations      ....    16
   Max. Number of Macro iterations      .... Maxiter - #DIIS iter
   Number of Davidson start vectors     ....     2
   Converg. threshold I  (grad. norm)   ....   1.000e-05
   Converg. threshold II (energy diff.) ....   1.000e-08
   Grad. Scal. Fac. for Micro threshold ....   0.100
   Minimum threshold for Micro iter.    ....   0.010
   NR start threshold (gradient norm)   ....   0.001
   Initial trust radius                 ....   0.400
   Minimum AH scaling param. (alpha)    ....   1.000
   Maximum AH scaling param. (alpha)    .... 1000.000
   Orbital update algorithm             .... Taylor
   White noise on init. David. guess    .... on
   Maximum white noise                  ....   0.010
   Quad. conv. algorithm                .... NR
 SOSCF                  CNVSOSCF        .... on
   Start iteration      SOSCFMaxIt      ....   150
   Startup grad/error   SOSCFStart      ....  0.003300
 Level Shifting         CNVShift        .... on
   Level shift para.    LevelShift      ....    0.2500
   Turn off err/grad.   ShiftErr        ....    0.0010
 Zerner damping         CNVZerner       .... off
 Static damping         CNVDamp         .... on
   Fraction old density DampFac         ....    0.7000
   Max. Damping (<1)    DampMax         ....    0.9800
   Min. Damping (>=0)   DampMin         ....    0.0000
   Turn off err/grad.   DampErr         ....    0.1000
 Fernandez-Rico         CNVRico         .... off

SCF Procedure:
 Maximum # iterations   MaxIter         ....   125
 SCF integral mode      SCFMode         .... Direct
   Integral package                     .... SHARK and LIBINT hybrid scheme
 Reset frequency        DirectResetFreq ....    20
 Integral Threshold     Thresh          ....  2.500e-11 Eh
 Primitive CutOff       TCut            ....  2.500e-12 Eh

Convergence Tolerance:
 Convergence Check Mode ConvCheckMode   .... Total+1el-Energy
 Convergence forced     ConvForced      .... 0
 Energy Change          TolE            ....  1.000e-08 Eh
 1-El. energy change                    ....  1.000e-05 Eh
 Orbital Gradient       TolG            ....  1.000e-05
 Orbital Rotation angle TolX            ....  1.000e-05
 DIIS Error             TolErr          ....  5.000e-07


Diagonalization of the overlap matrix:
Smallest eigenvalue                        ... 8.325e-04
Time for diagonalization                   ...    0.002 sec
Threshold for overlap eigenvalues          ... 1.000e-08
Number of eigenvalues below threshold      ... 0
Time for construction of square roots      ...    0.004 sec
Total time needed                          ...    0.006 sec

SHARK General Contraction Test:  Segmented basis detected
   -> Pre-screening matrix found on disk - Trying to read with NShells=45
   -> Passing Pre-screening matrix on to SHARK ...ok
   -> Leaving CheckPreScreeningMatrix
----------------------
SHARK INTEGRAL PACKAGE
----------------------

Number of atoms                             ...     10
Number of basis functions                   ...     95
Number of shells                            ...     45
Maximum angular momentum                    ...      2
Integral batch strategy                     ... SHARK/LIBINT Hybrid
RI-J (if used) integral strategy            ... SPLIT-RIJ (Revised 2003 algorithm where possible)
Printlevel                                  ...      2
Contraction scheme used                     ... SEGMENTED contraction
Coulomb Range Separation                    ... NOT USED
Exchange Range Separation                   ... NOT USED
Finite Nucleus Model                        ... NOT USED
Auxiliary Coulomb fitting basis             ... AVAILABLE
   # of basis functions in Aux-J            ...    300
   # of shells in Aux-J                     ...    100
   Maximum angular momentum in Aux-J        ...      4
Auxiliary J/K fitting basis                 ... NOT available
Auxiliary Correlation fitting basis         ... NOT available
Auxiliary 'external' fitting basis          ... NOT available
Integral threshold                          ...     2.500000e-11
Primitive cut-off                           ...     2.500000e-12
Primitive pair pre-selection threshold      ...     2.500000e-12

Time for model grid setup =    0.399 sec

------------------------------
INITIAL GUESS: MODEL POTENTIAL
------------------------------
Loading Hartree-Fock densities                     ... done
Calculating cut-offs                               ... done
Initializing the effective Hamiltonian             ... done
Setting up the integral package (SHARK)            ... done
Starting the Coulomb interaction                   ...     -> Generating integrals - 
    -> L=0 0 :     0.090 sec done=     25598 skipped=         2 prim-skipped=         0
    -> L=1 0 :     0.013 sec done=     29404 skipped=       357 prim-skipped=         0
    -> L=1 1 :     0.005 sec done=      9449 skipped=        71 prim-skipped=         0
    -> L=2 0 :     0.085 sec done=     10000 skipped=         0 prim-skipped=         0
    -> L=2 1 :     0.004 sec done=      6000 skipped=         0 prim-skipped=         0
    -> L=2 2 :     0.001 sec done=      1200 skipped=         0 prim-skipped=         0
done (   0.2 sec)
Reading the grid                                   ... done
Mapping shells                                     ... done
Starting the XC term evaluation                    ... done (   0.5 sec)
  promolecular density results
     # of electrons  =     35.996738607
     EX              =    -28.643681478
     EC              =     -1.195897248
     EX+EC           =    -29.839578726
Transforming the Hamiltonian                       ... done (   0.0 sec)
Diagonalizing the Hamiltonian                      ... done (   0.0 sec)
Back transforming the eigenvectors                 ... done (   0.0 sec)
Now organizing SCF variables                       ... done
                      ------------------
                      INITIAL GUESS DONE (   1.1 sec)
                      ------------------
-------------------
DFT GRID GENERATION
-------------------

General Integration Accuracy     IntAcc      ... 4.388
Radial Grid Type                 RadialGrid  ... OptM3 with GC (2021)
Angular Grid (max. ang.)         AngularGrid ... 4 (Lebedev-302)
Angular grid pruning method      GridPruning ... 4 (adaptive)
Weight generation scheme         WeightScheme... Becke
Basis function cutoff            BFCut       ... 1.0000e-11
Integration weight cutoff        WCut        ... 1.0000e-14
Angular grids for H and He will be reduced by one unit
Partially contracted basis set               ... off
Rotationally invariant grid construction     ... off

Total number of grid points                  ...    46405
Total number of batches                      ...      728
Average number of points per batch           ...       63
Average number of grid points per atom       ...     4640
Time for grid setup =    1.906 sec

--------------------
COSX GRID GENERATION
--------------------

GRIDX 1
-------
General Integration Accuracy     IntAcc      ... 3.816
Radial Grid Type                 RadialGrid  ... OptM3 with GC (2021)
Angular Grid (max. ang.)         AngularGrid ... 1 (Lebedev-50)
Angular grid pruning method      GridPruning ... 4 (adaptive)
Weight generation scheme         WeightScheme... Becke
Basis function cutoff            BFCut       ... 1.0000e-11
Integration weight cutoff        WCut        ... 1.0000e-14
Angular grids for H and He will be reduced by one unit
Partially contracted basis set               ... on
Rotationally invariant grid construction     ... off

Total number of grid points                  ...     5954
Total number of batches                      ...       96
Average number of points per batch           ...       62
Average number of grid points per atom       ...      595
UseSFitting                                  ... on

GRIDX 2
-------
General Integration Accuracy     IntAcc      ... 4.020
Radial Grid Type                 RadialGrid  ... OptM3 with GC (2021)
Angular Grid (max. ang.)         AngularGrid ... 2 (Lebedev-110)
Angular grid pruning method      GridPruning ... 4 (adaptive)
Weight generation scheme         WeightScheme... Becke
Basis function cutoff            BFCut       ... 1.0000e-11
Integration weight cutoff        WCut        ... 1.0000e-14
Angular grids for H and He will be reduced by one unit
Partially contracted basis set               ... on
Rotationally invariant grid construction     ... off

Total number of grid points                  ...    13006
Total number of batches                      ...      208
Average number of points per batch           ...       62
Average number of grid points per atom       ...     1301
UseSFitting                                  ... on

GRIDX 3
-------
General Integration Accuracy     IntAcc      ... 4.338
Radial Grid Type                 RadialGrid  ... OptM3 with GC (2021)
Angular Grid (max. ang.)         AngularGrid ... 3 (Lebedev-194)
Angular grid pruning method      GridPruning ... 4 (adaptive)
Weight generation scheme         WeightScheme... Becke
Basis function cutoff            BFCut       ... 1.0000e-11
Integration weight cutoff        WCut        ... 1.0000e-14
Angular grids for H and He will be reduced by one unit
Partially contracted basis set               ... on
Rotationally invariant grid construction     ... off

Total number of grid points                  ...    28625
Total number of batches                      ...      452
Average number of points per batch           ...       63
Average number of grid points per atom       ...     2862
UseSFitting                                  ... on

Time for X-Grid setup             =    2.090 sec


--------------------
CPCM SOLVATION MODEL
--------------------
CPCM parameters:
  Epsilon                                         ...      69.0000
  Refrac                                          ...       1.3400
  Rsolv                                           ...       1.3000
  Surface type                                    ... GAUSSIAN VDW
  Epsilon function type                           ...         CPCM
Radii:
 Radius for C  used is    3.8550 Bohr (=   2.0400 Ang.)
 Radius for N  used is    3.5149 Bohr (=   1.8600 Ang.)
 Radius for H  used is    2.4944 Bohr (=   1.3200 Ang.)
Calculating surface                               ...        done! (  0.0s)
GEPOL surface points                              ...          601
GEPOL Volume                                      ...     630.1905
GEPOL Surface-area                                ...     385.3437
Calculating surface distance matrix               ...        done! (  0.0s)
Performing Cholesky decomposition & store         ...        done! (  0.1s)
Overall time for CPCM initialization              ...                 0.1s
--------------
SCF ITERATIONS
--------------
               ***  Starting incremental Fock matrix formation  ***
==>> SHARK/AuxDens: NDens=1 Thresh =     2.500000e-11 TCut=    2.500000e-12 Lmax=2 LmaxAux=4
    -> Making Hermite density - ok     0.003 sec
    -> Making Aux-basis density - (lmax=2)
    -> L=0 0:    0.095 sec done=     32000 (100.0%) skipped=         0 
    -> L=1 0:    0.100 sec done=     36068 ( 96.2%) skipped=      1432 
    -> L=1 1:    0.009 sec done=     11500 ( 95.8%) skipped=       500 
    -> L=2 0:    0.089 sec done=     12500 (100.0%) skipped=         0 
    -> L=2 1:    0.006 sec done=      7500 (100.0%) skipped=         0 
    -> L=2 2:    0.002 sec done=      1500 (100.0%) skipped=         0 
    -> Aux basis density formed in    0.3 sec
    -> Solving linear equations - ok (   0.0 sec)
        Auxbasis Hermite Density:
        P|s>                     ...  0.000
        P|p>                     ...  0.000
        P|d>                     ...  0.000
        P|f>                     ...  0.000
        P|g>                     ...  0.000
        Building the Coulomb matrix: 
        J|ss>                          ... done (  0.1 sec) ndone=   177677 nskipped1=        0 nskipped2=     6003
        J|ps>                          ... done (  0.1 sec) ndone=   175115 nskipped1=     2490 nskipped2=     3533
        J|pp>                          ... done (  0.0 sec) ndone=    49160 nskipped1=      347 nskipped2=     1602
        J|ds>                          ... done (  0.0 sec) ndone=    42094 nskipped1=        0 nskipped2=      626
        J|dp>                          ... done (  0.0 sec) ndone=    20000 nskipped1=        0 nskipped2=        0
        J|dd>                          ... done (  0.0 sec) ndone=     2400 nskipped1=        0 nskipped2=        0
        Coulomb matrix built in   0.2 sec

        Total time for Split-RI-J                ...    0.508 sec
          (0) Prelude                            ...    0.000 sec
          (1) Hermite density                    ...    0.000 sec
          (2) Aux basis density                  ...    0.000 sec (inner=  0.0)
          (3) Linear equation solution           ...    0.000 sec
          (4) J-Matrix construction              ...    0.199 sec (inner=  0.2)
        ---------------------------------------------------------

                         ----------------------------
                         !        ITERATION     0   !
                         ----------------------------
   Total Energy        :    -209.766412905190 Eh
   Energy Change       :    -209.766412905190 Eh
   MAX-DP              :       0.065532699419
   RMS-DP              :       0.002879143377
   Actual Damping      :       0.7000
   Actual Level Shift  :       0.2500 Eh
   Int. Num. El.       :    35.99998206 (UP=   17.99999103 DN=   17.99999103)
   Exchange            :   -23.46737438
   Correlation         :    -1.43389629

==>> SHARK/AuxDens: NDens=1 Thresh =     2.500000e-11 TCut=    2.500000e-12 Lmax=2 LmaxAux=4
    -> Making Hermite density - ok     0.085 sec
    -> Making Aux-basis density - (lmax=2)
    -> L=0 0:    0.010 sec done=     31408 ( 98.2%) skipped=       592 
    -> L=1 0:    0.096 sec done=     35600 ( 94.9%) skipped=      1900 
    -> L=1 1:    0.008 sec done=     11500 ( 95.8%) skipped=       500 
    -> L=2 0:    0.086 sec done=     12500 (100.0%) skipped=         0 
    -> L=2 1:    0.006 sec done=      7500 (100.0%) skipped=         0 
    -> L=2 2:    0.001 sec done=      1500 (100.0%) skipped=         0 
    -> Aux basis density formed in    0.2 sec
    -> Solving linear equations - ok (   0.0 sec)
        Auxbasis Hermite Density:
        P|s>                     ...  0.000
        P|p>                     ...  0.000
        P|d>                     ...  0.000
        P|f>                     ...  0.000
        P|g>                     ...  0.000
        Building the Coulomb matrix: 
        J|ss>                          ... done (  0.0 sec) ndone=   177360 nskipped1=      295 nskipped2=     5995
        J|ps>                          ... done (  0.1 sec) ndone=   174880 nskipped1=     2930 nskipped2=     2408
        J|pp>                          ... done (  0.0 sec) ndone=    48969 nskipped1=      493 nskipped2=     1438
        J|ds>                          ... done (  0.1 sec) ndone=    42094 nskipped1=        0 nskipped2=      626
        J|dp>                          ... done (  0.0 sec) ndone=    20000 nskipped1=        0 nskipped2=        0
        J|dd>                          ... done (  0.0 sec) ndone=     2400 nskipped1=        0 nskipped2=        0
        Coulomb matrix built in   0.2 sec

        Total time for Split-RI-J                ...    0.492 sec
          (0) Prelude                            ...    0.000 sec
          (1) Hermite density                    ...    0.000 sec
          (2) Aux basis density                  ...    0.000 sec (inner=  0.0)
          (3) Linear equation solution           ...    0.000 sec
          (4) J-Matrix construction              ...    0.198 sec (inner=  0.2)
        ---------------------------------------------------------

                         ----------------------------
                         !        ITERATION     1   !
                         ----------------------------
   Total Energy        :    -209.825529945263 Eh
   Energy Change       :      -0.059117040073 Eh
   MAX-DP              :       0.041998854484
   RMS-DP              :       0.002030909660
   Actual Damping      :       0.7000
   Actual Level Shift  :       0.2500 Eh
   Int. Num. El.       :    35.99997753 (UP=   17.99998876 DN=   17.99998876)
   Exchange            :   -23.30142855
   Correlation         :    -1.42655361

==>> SHARK/AuxDens: NDens=1 Thresh =     2.500000e-11 TCut=    2.500000e-12 Lmax=2 LmaxAux=4
    -> Making Hermite density - ok     0.087 sec
    -> Making Aux-basis density - (lmax=2)
    -> L=0 0:    0.097 sec done=     31066 ( 97.1%) skipped=       934 
    -> L=1 0:    0.107 sec done=     35550 ( 94.8%) skipped=      1950 
    -> L=1 1:    0.093 sec done=     11500 ( 95.8%) skipped=       500 
    -> L=2 0:    0.011 sec done=     12500 (100.0%) skipped=         0 
    -> L=2 1:    0.089 sec done=      7500 (100.0%) skipped=         0 
    -> L=2 2:    0.002 sec done=      1500 (100.0%) skipped=         0 
    -> Aux basis density formed in    0.4 sec
    -> Solving linear equations - ok (   0.0 sec)
        Auxbasis Hermite Density:
        P|s>                     ...  0.000
        P|p>                     ...  0.000
        P|d>                     ...  0.000
        P|f>                     ...  0.000
        P|g>                     ...  0.000
        Building the Coulomb matrix: 
        J|ss>                          ... done (  0.0 sec) ndone=   177187 nskipped1=      420 nskipped2=     6003
        J|ps>                          ... done (  0.2 sec) ndone=   174786 nskipped1=     2994 nskipped2=     2404
        J|pp>                          ... done (  0.0 sec) ndone=    48966 nskipped1=      496 nskipped2=     1438
        J|ds>                          ... done (  0.1 sec) ndone=    42094 nskipped1=        0 nskipped2=      626
        J|dp>                          ... done (  0.0 sec) ndone=    20000 nskipped1=        0 nskipped2=        0
        J|dd>                          ... done (  0.0 sec) ndone=     2400 nskipped1=        0 nskipped2=        0
        Coulomb matrix built in   0.3 sec

        Total time for Split-RI-J                ...    0.794 sec
          (0) Prelude                            ...    0.000 sec
          (1) Hermite density                    ...    0.000 sec
          (2) Aux basis density                  ...    0.000 sec (inner=  0.0)
          (3) Linear equation solution           ...    0.000 sec
          (4) J-Matrix construction              ...    0.305 sec (inner=  0.3)
        ---------------------------------------------------------
                               ***Turning on DIIS***

                         ----------------------------
                         !        ITERATION     2   !
                         ----------------------------
   Total Energy        :    -209.850871699896 Eh
   Energy Change       :      -0.025341754632 Eh
   MAX-DP              :       0.069453319100
   RMS-DP              :       0.003449898408
   Actual Damping      :       0.0000
   Actual Level Shift  :       0.2500 Eh
   Int. Num. El.       :    35.99997424 (UP=   17.99998712 DN=   17.99998712)
   Exchange            :   -23.18764412
   Correlation         :    -1.42132561
   DIIS-Error          :       0.033906877921

==>> SHARK/AuxDens: NDens=1 Thresh =     2.500000e-11 TCut=    2.500000e-12 Lmax=2 LmaxAux=4
    -> Making Hermite density - ok     0.002 sec
    -> Making Aux-basis density - (lmax=2)
    -> L=0 0:    0.078 sec done=     31307 ( 97.8%) skipped=       693 
    -> L=1 0:    0.105 sec done=     35578 ( 94.9%) skipped=      1922 
    -> L=1 1:    0.008 sec done=     11500 ( 95.8%) skipped=       500 
    -> L=2 0:    0.006 sec done=     12500 (100.0%) skipped=         0 
    -> L=2 1:    0.005 sec done=      7500 (100.0%) skipped=         0 
    -> L=2 2:    0.001 sec done=      1500 (100.0%) skipped=         0 
    -> Aux basis density formed in    0.2 sec
    -> Solving linear equations - ok (   0.0 sec)
        Auxbasis Hermite Density:
        P|s>                     ...  0.000
        P|p>                     ...  0.000
        P|d>                     ...  0.000
        P|f>                     ...  0.000
        P|g>                     ...  0.000
        Building the Coulomb matrix: 
        J|ss>                          ... done (  0.1 sec) ndone=   177097 nskipped1=      336 nskipped2=     5955
        J|ps>                          ... done (  0.0 sec) ndone=   174808 nskipped1=     2932 nskipped2=     2404
        J|pp>                          ... done (  0.0 sec) ndone=    48971 nskipped1=      491 nskipped2=     1438
        J|ds>                          ... done (  0.0 sec) ndone=    42094 nskipped1=        0 nskipped2=      626
        J|dp>                          ... done (  0.1 sec) ndone=    20000 nskipped1=        0 nskipped2=        0
        J|dd>                          ... done (  0.0 sec) ndone=     2400 nskipped1=        0 nskipped2=        0
        Coulomb matrix built in   0.2 sec

        Total time for Split-RI-J                ...    0.381 sec
          (0) Prelude                            ...    0.000 sec
          (1) Hermite density                    ...    0.000 sec
          (2) Aux basis density                  ...    0.000 sec (inner=  0.0)
          (3) Linear equation solution           ...    0.000 sec
          (4) J-Matrix construction              ...    0.174 sec (inner=  0.2)
        ---------------------------------------------------------

                         ----------------------------
                         !        ITERATION     3   !
                         ----------------------------
   Total Energy        :    -209.887056344008 Eh
   Energy Change       :      -0.036184644113 Eh
   MAX-DP              :       0.028303913098
   RMS-DP              :       0.001305052928
   Actual Damping      :       0.0000
   Actual Level Shift  :       0.2500 Eh
   Int. Num. El.       :    35.99996887 (UP=   17.99998444 DN=   17.99998444)
   Exchange            :   -23.01072987
   Correlation         :    -1.41299990
   DIIS-Error          :       0.044506778498
   DIIS coefficients:
      0.58039   0.41961

==>> SHARK/AuxDens: NDens=1 Thresh =     2.500000e-11 TCut=    2.500000e-12 Lmax=2 LmaxAux=4
    -> Making Hermite density - ok     0.083 sec
    -> Making Aux-basis density - (lmax=2)
    -> L=0 0:    0.013 sec done=     31566 ( 98.6%) skipped=       434 
    -> L=1 0:    0.097 sec done=     35532 ( 94.8%) skipped=      1968 
    -> L=1 1:    0.008 sec done=     11500 ( 95.8%) skipped=       500 
    -> L=2 0:    0.088 sec done=     12500 (100.0%) skipped=         0 
    -> L=2 1:    0.006 sec done=      7500 (100.0%) skipped=         0 
    -> L=2 2:    0.002 sec done=      1500 (100.0%) skipped=         0 
    -> Aux basis density formed in    0.2 sec
    -> Solving linear equations - ok (   0.0 sec)
        Auxbasis Hermite Density:
        P|s>                     ...  0.000
        P|p>                     ...  0.000
        P|d>                     ...  0.000
        P|f>                     ...  0.000
        P|g>                     ...  0.000
        Building the Coulomb matrix: 
        J|ss>                          ... done (  0.1 sec) ndone=   176923 nskipped1=      700 nskipped2=     5987
        J|ps>                          ... done (  0.1 sec) ndone=   174686 nskipped1=     3078 nskipped2=     2406
        J|pp>                          ... done (  0.0 sec) ndone=    48959 nskipped1=      505 nskipped2=     1436
        J|ds>                          ... done (  0.0 sec) ndone=    42094 nskipped1=        0 nskipped2=      626
        J|dp>                          ... done (  0.0 sec) ndone=    19998 nskipped1=        2 nskipped2=        0
        J|dd>                          ... done (  0.1 sec) ndone=     2400 nskipped1=        0 nskipped2=        0
        Coulomb matrix built in   0.3 sec

        Total time for Split-RI-J                ...    0.582 sec
          (0) Prelude                            ...    0.000 sec
          (1) Hermite density                    ...    0.000 sec
          (2) Aux basis density                  ...    0.000 sec (inner=  0.0)
          (3) Linear equation solution           ...    0.000 sec
          (4) J-Matrix construction              ...    0.283 sec (inner=  0.3)
        ---------------------------------------------------------

                         ----------------------------
                         !        ITERATION     4   !
                         ----------------------------
   Total Energy        :    -209.896565393490 Eh
   Energy Change       :      -0.009509049481 Eh
   MAX-DP              :       0.006221149377
   RMS-DP              :       0.000377008443
   Actual Damping      :       0.0000
   Actual Level Shift  :       0.2500 Eh
   Int. Num. El.       :    35.99997088 (UP=   17.99998544 DN=   17.99998544)
   Exchange            :   -23.07953532
   Correlation         :    -1.41646209
   DIIS-Error          :       0.008868206119
   DIIS coefficients:
      0.18166  -0.04356   0.86190

==>> SHARK/AuxDens: NDens=1 Thresh =     2.500000e-11 TCut=    2.500000e-12 Lmax=2 LmaxAux=4
    -> Making Hermite density - ok     0.002 sec
    -> Making Aux-basis density - (lmax=2)
    -> L=0 0:    0.009 sec done=     30725 ( 96.0%) skipped=      1275 
    -> L=1 0:    0.095 sec done=     35500 ( 94.7%) skipped=      2000 
    -> L=1 1:    0.008 sec done=     11500 ( 95.8%) skipped=       500 
    -> L=2 0:    0.006 sec done=     12500 (100.0%) skipped=         0 
    -> L=2 1:    0.005 sec done=      7308 ( 97.4%) skipped=       192 
    -> L=2 2:    0.001 sec done=      1500 (100.0%) skipped=         0 
    -> Aux basis density formed in    0.1 sec
    -> Solving linear equations - ok (   0.0 sec)
        Auxbasis Hermite Density:
        P|s>                     ...  0.000
        P|p>                     ...  0.000
        P|d>                     ...  0.000
        P|f>                     ...  0.000
        P|g>                     ...  0.000
        Building the Coulomb matrix: 
        J|ss>                          ... done (  0.0 sec) ndone=   174371 nskipped1=     2302 nskipped2=     5659
        J|ps>                          ... done (  0.1 sec) ndone=   173998 nskipped1=     3428 nskipped2=     2392
        J|pp>                          ... done (  0.0 sec) ndone=    48962 nskipped1=      500 nskipped2=     1438
        J|ds>                          ... done (  0.0 sec) ndone=    42094 nskipped1=        0 nskipped2=      626
        J|dp>                          ... done (  0.0 sec) ndone=    20000 nskipped1=        0 nskipped2=        0
        J|dd>                          ... done (  0.0 sec) ndone=     2400 nskipped1=        0 nskipped2=        0
        Coulomb matrix built in   0.1 sec

        Total time for Split-RI-J                ...    0.317 sec
          (0) Prelude                            ...    0.000 sec
          (1) Hermite density                    ...    0.000 sec
          (2) Aux basis density                  ...    0.000 sec (inner=  0.0)
          (3) Linear equation solution           ...    0.000 sec
          (4) J-Matrix construction              ...    0.118 sec (inner=  0.1)
        ---------------------------------------------------------
                      *** Initiating the SOSCF procedure ***
                           *** Shutting down DIIS ***
                      *** Re-Reading the Fockian *** 
                      *** Removing any level shift *** 

                         ----------------------------
                         !        ITERATION     5   !
                         ----------------------------
   Total Energy        :    -209.897055175371 Eh
   Energy Change       :      -0.000489781881 Eh
   MAX-DP              :       0.002365505107
   RMS-DP              :       0.000131356329
   Orbital gradient    :       0.000940667499
   Orbital Rotation    :       0.000940667499
   Actual Damping      :       0.0000
   Int. Num. El.       :    35.99997137 (UP=   17.99998568 DN=   17.99998568)
   Exchange            :   -23.09592948
   Correlation         :    -1.41728197

               *** Restarting incremental Fock matrix formation ***
==>> SHARK/AuxDens: NDens=1 Thresh =     2.500000e-11 TCut=    2.500000e-12 Lmax=2 LmaxAux=4
    -> Making Hermite density - ok     0.003 sec
    -> Making Aux-basis density - (lmax=2)
    -> L=0 0:    0.090 sec done=     32000 (100.0%) skipped=         0 
    -> L=1 0:    0.015 sec done=     36001 ( 96.0%) skipped=      1499 
    -> L=1 1:    0.088 sec done=     11500 ( 95.8%) skipped=       500 
    -> L=2 0:    0.006 sec done=     12500 (100.0%) skipped=         0 
    -> L=2 1:    0.006 sec done=      7500 (100.0%) skipped=         0 
    -> L=2 2:    0.001 sec done=      1500 (100.0%) skipped=         0 
    -> Aux basis density formed in    0.2 sec
    -> Solving linear equations - ok (   0.0 sec)
        Auxbasis Hermite Density:
        P|s>                     ...  0.000
        P|p>                     ...  0.000
        P|d>                     ...  0.000
        P|f>                     ...  0.000
        P|g>                     ...  0.000
        Building the Coulomb matrix: 
        J|ss>                          ... done (  0.0 sec) ndone=   177677 nskipped1=        0 nskipped2=     6003
        J|ps>                          ... done (  0.1 sec) ndone=   175114 nskipped1=     2485 nskipped2=     3547
        J|pp>                          ... done (  0.0 sec) ndone=    49160 nskipped1=      345 nskipped2=     1602
        J|ds>                          ... done (  0.0 sec) ndone=    42094 nskipped1=        0 nskipped2=      626
        J|dp>                          ... done (  0.0 sec) ndone=    20000 nskipped1=        0 nskipped2=        0
        J|dd>                          ... done (  0.0 sec) ndone=     2400 nskipped1=        0 nskipped2=        0
        Coulomb matrix built in   0.1 sec

        Total time for Split-RI-J                ...    0.410 sec
          (0) Prelude                            ...    0.000 sec
          (1) Hermite density                    ...    0.000 sec
          (2) Aux basis density                  ...    0.000 sec (inner=  0.0)
          (3) Linear equation solution           ...    0.000 sec
          (4) J-Matrix construction              ...    0.118 sec (inner=  0.1)
        ---------------------------------------------------------

                         ----------------------------
                         !        ITERATION     6   !
                         ----------------------------
   Total Energy        :    -209.897165121507 Eh
   Energy Change       :      -0.000109946136 Eh
   MAX-DP              :       0.001633212454
   RMS-DP              :       0.000097297155
   Orbital gradient    :       0.000381830544
   Orbital Rotation    :       0.000881962535
   Actual Damping      :       0.0000
   Int. Num. El.       :    35.99997146 (UP=   17.99998573 DN=   17.99998573)
   Exchange            :   -23.10038822
   Correlation         :    -1.41747947

==>> SHARK/AuxDens: NDens=1 Thresh =     2.500000e-11 TCut=    2.500000e-12 Lmax=2 LmaxAux=4
    -> Making Hermite density - ok     0.082 sec
    -> Making Aux-basis density - (lmax=2)
    -> L=0 0:    0.011 sec done=     30280 ( 94.6%) skipped=      1720 
    -> L=1 0:    0.098 sec done=     35500 ( 94.7%) skipped=      2000 
    -> L=1 1:    0.007 sec done=     11490 ( 95.8%) skipped=       510 
    -> L=2 0:    0.087 sec done=     12500 (100.0%) skipped=         0 
    -> L=2 1:    0.005 sec done=      6816 ( 90.9%) skipped=       684 
    -> L=2 2:    0.001 sec done=      1500 (100.0%) skipped=         0 
    -> Aux basis density formed in    0.2 sec
    -> Solving linear equations - ok (   0.0 sec)
        Auxbasis Hermite Density:
        P|s>                     ...  0.000
        P|p>                     ...  0.000
        P|d>                     ...  0.000
        P|f>                     ...  0.000
        P|g>                     ...  0.000
        Building the Coulomb matrix: 
        J|ss>                          ... done (  0.1 sec) ndone=   169739 nskipped1=     5818 nskipped2=     4717
        J|ps>                          ... done (  0.0 sec) ndone=   173588 nskipped1=     3712 nskipped2=     2388
        J|pp>                          ... done (  0.1 sec) ndone=    48944 nskipped1=      515 nskipped2=     1429
        J|ds>                          ... done (  0.0 sec) ndone=    42094 nskipped1=        0 nskipped2=      626
        J|dp>                          ... done (  0.0 sec) ndone=    19990 nskipped1=        6 nskipped2=        0
        J|dd>                          ... done (  0.0 sec) ndone=     2400 nskipped1=        0 nskipped2=        0
        Coulomb matrix built in   0.2 sec

        Total time for Split-RI-J                ...    0.493 sec
          (0) Prelude                            ...    0.000 sec
          (1) Hermite density                    ...    0.000 sec
          (2) Aux basis density                  ...    0.000 sec (inner=  0.0)
          (3) Linear equation solution           ...    0.000 sec
          (4) J-Matrix construction              ...    0.199 sec (inner=  0.2)
        ---------------------------------------------------------

                         ----------------------------
                         !        ITERATION     7   !
                         ----------------------------
   Total Energy        :    -209.897164447623 Eh
   Energy Change       :       0.000000673885 Eh
   MAX-DP              :       0.001102514005
   RMS-DP              :       0.000033368825
   Orbital gradient    :       0.000544244225
   Orbital Rotation    :       0.000732008461
   Actual Damping      :       0.0000
   Int. Num. El.       :    35.99997154 (UP=   17.99998577 DN=   17.99998577)
   Exchange            :   -23.10193544
   Correlation         :    -1.41758349

==>> SHARK/AuxDens: NDens=1 Thresh =     2.500000e-11 TCut=    2.500000e-12 Lmax=2 LmaxAux=4
    -> Making Hermite density - ok     0.003 sec
    -> Making Aux-basis density - (lmax=2)
    -> L=0 0:    0.089 sec done=     30078 ( 94.0%) skipped=      1922 
    -> L=1 0:    0.015 sec done=     35436 ( 94.5%) skipped=      2064 
    -> L=1 1:    0.088 sec done=     11342 ( 94.5%) skipped=       658 
    -> L=2 0:    0.006 sec done=     12473 ( 99.8%) skipped=        27 
    -> L=2 1:    0.005 sec done=      6687 ( 89.2%) skipped=       813 
    -> L=2 2:    0.082 sec done=      1500 (100.0%) skipped=         0 
    -> Aux basis density formed in    0.3 sec
    -> Solving linear equations - ok (   0.0 sec)
        Auxbasis Hermite Density:
        P|s>                     ...  0.000
        P|p>                     ...  0.000
        P|d>                     ...  0.000
        P|f>                     ...  0.000
        P|g>                     ...  0.000
        Building the Coulomb matrix: 
        J|ss>                          ... done (  0.0 sec) ndone=   168295 nskipped1=     7017 nskipped2=     4287
        J|ps>                          ... done (  0.1 sec) ndone=   173429 nskipped1=     3827 nskipped2=     2384
        J|pp>                          ... done (  0.0 sec) ndone=    48922 nskipped1=      551 nskipped2=     1421
        J|ds>                          ... done (  0.0 sec) ndone=    42074 nskipped1=       20 nskipped2=      626
        J|dp>                          ... done (  0.1 sec) ndone=    19965 nskipped1=       33 nskipped2=        0
        J|dd>                          ... done (  0.0 sec) ndone=     2400 nskipped1=        0 nskipped2=        0
        Coulomb matrix built in   0.2 sec

        Total time for Split-RI-J                ...    0.490 sec
          (0) Prelude                            ...    0.000 sec
          (1) Hermite density                    ...    0.000 sec
          (2) Aux basis density                  ...    0.000 sec (inner=  0.0)
          (3) Linear equation solution           ...    0.000 sec
          (4) J-Matrix construction              ...    0.199 sec (inner=  0.2)
        ---------------------------------------------------------

                         ----------------------------
                         !        ITERATION     8   !
                         ----------------------------
   Total Energy        :    -209.897169378751 Eh
   Energy Change       :      -0.000004931128 Eh
   MAX-DP              :       0.000375350957
   RMS-DP              :       0.000014697934
   Orbital gradient    :       0.000102014832
   Orbital Rotation    :       0.000231463973
   Actual Damping      :       0.0000
   Int. Num. El.       :    35.99997150 (UP=   17.99998575 DN=   17.99998575)
   Exchange            :   -23.10164245
   Correlation         :    -1.41755386

==>> SHARK/AuxDens: NDens=1 Thresh =     2.500000e-11 TCut=    2.500000e-12 Lmax=2 LmaxAux=4
    -> Making Hermite density - ok     0.003 sec
    -> Making Aux-basis density - (lmax=2)
    -> L=0 0:    0.097 sec done=     29904 ( 93.5%) skipped=      2096 
    -> L=1 0:    0.106 sec done=     35145 ( 93.7%) skipped=      2355 
    -> L=1 1:    0.092 sec done=     11328 ( 94.4%) skipped=       672 
    -> L=2 0:    0.010 sec done=     12216 ( 97.7%) skipped=       284 
    -> L=2 1:    0.089 sec done=      6548 ( 87.3%) skipped=       952 
    -> L=2 2:    0.002 sec done=      1500 (100.0%) skipped=         0 
    -> Aux basis density formed in    0.4 sec
    -> Solving linear equations - ok (   0.0 sec)
        Auxbasis Hermite Density:
        P|s>                     ...  0.000
        P|p>                     ...  0.000
        P|d>                     ...  0.000
        P|f>                     ...  0.000
        P|g>                     ...  0.000
        Building the Coulomb matrix: 
        J|ss>                          ... done (  0.1 sec) ndone=   166327 nskipped1=     8745 nskipped2=     3361
        J|ps>                          ... done (  0.0 sec) ndone=   172463 nskipped1=     4094 nskipped2=     2309
        J|pp>                          ... done (  0.0 sec) ndone=    48702 nskipped1=      665 nskipped2=     1272
        J|ds>                          ... done (  0.1 sec) ndone=    41568 nskipped1=      193 nskipped2=      564
        J|dp>                          ... done (  0.0 sec) ndone=    19767 nskipped1=      102 nskipped2=        0
        J|dd>                          ... done (  0.0 sec) ndone=     2400 nskipped1=        0 nskipped2=        0
        Coulomb matrix built in   0.2 sec

        Total time for Split-RI-J                ...    0.607 sec
          (0) Prelude                            ...    0.000 sec
          (1) Hermite density                    ...    0.000 sec
          (2) Aux basis density                  ...    0.000 sec (inner=  0.0)
          (3) Linear equation solution           ...    0.000 sec
          (4) J-Matrix construction              ...    0.204 sec (inner=  0.2)
        ---------------------------------------------------------

                         ----------------------------
                         !        ITERATION     9   !
                         ----------------------------
   Total Energy        :    -209.897169278403 Eh
   Energy Change       :       0.000000100348 Eh
   MAX-DP              :       0.000183063520
   RMS-DP              :       0.000008341813
   Orbital gradient    :       0.000126099157
   Orbital Rotation    :       0.000131521835
   Actual Damping      :       0.0000
   Int. Num. El.       :    35.99997149 (UP=   17.99998574 DN=   17.99998574)
   Exchange            :   -23.10092585
   Correlation         :    -1.41752037

==>> SHARK/AuxDens: NDens=1 Thresh =     2.500000e-11 TCut=    2.500000e-12 Lmax=2 LmaxAux=4
    -> Making Hermite density - ok     0.002 sec
    -> Making Aux-basis density - (lmax=2)
    -> L=0 0:    0.078 sec done=     29834 ( 93.2%) skipped=      2166 
    -> L=1 0:    0.015 sec done=     34774 ( 92.7%) skipped=      2726 
    -> L=1 1:    0.008 sec done=     11242 ( 93.7%) skipped=       758 
    -> L=2 0:    0.005 sec done=     12047 ( 96.4%) skipped=       453 
    -> L=2 1:    0.075 sec done=      6518 ( 86.9%) skipped=       982 
    -> L=2 2:    0.001 sec done=      1500 (100.0%) skipped=         0 
    -> Aux basis density formed in    0.2 sec
    -> Solving linear equations - ok (   0.0 sec)
        Auxbasis Hermite Density:
        P|s>                     ...  0.000
        P|p>                     ...  0.000
        P|d>                     ...  0.000
        P|f>                     ...  0.000
        P|g>                     ...  0.000
        Building the Coulomb matrix: 
        J|ss>                          ... done (  0.0 sec) ndone=   165665 nskipped1=     9366 nskipped2=     2973
        J|ps>                          ... done (  0.0 sec) ndone=   171951 nskipped1=     4373 nskipped2=     2296
        J|pp>                          ... done (  0.1 sec) ndone=    48567 nskipped1=      755 nskipped2=     1194
        J|ds>                          ... done (  0.0 sec) ndone=    41038 nskipped1=      358 nskipped2=      528
        J|dp>                          ... done (  0.0 sec) ndone=    19649 nskipped1=      185 nskipped2=        0
        J|dd>                          ... done (  0.0 sec) ndone=     2400 nskipped1=        0 nskipped2=        0
        Coulomb matrix built in   0.1 sec

        Total time for Split-RI-J                ...    0.294 sec
          (0) Prelude                            ...    0.000 sec
          (1) Hermite density                    ...    0.000 sec
          (2) Aux basis density                  ...    0.000 sec (inner=  0.0)
          (3) Linear equation solution           ...    0.000 sec
          (4) J-Matrix construction              ...    0.107 sec (inner=  0.0)
        ---------------------------------------------------------

                         ----------------------------
                         !        ITERATION    10   !
                         ----------------------------
   Total Energy        :    -209.897169543269 Eh
   Energy Change       :      -0.000000264866 Eh
   MAX-DP              :       0.000035473414
   RMS-DP              :       0.000001552064
   Orbital gradient    :       0.000011118066
   Orbital Rotation    :       0.000034678122
   Actual Damping      :       0.0000
   Int. Num. El.       :    35.99997149 (UP=   17.99998575 DN=   17.99998575)
   Exchange            :   -23.10129171
   Correlation         :    -1.41753838

==>> SHARK/AuxDens: NDens=1 Thresh =     2.500000e-11 TCut=    2.500000e-12 Lmax=2 LmaxAux=4
    -> Making Hermite density - ok     0.002 sec
    -> Making Aux-basis density - (lmax=2)
    -> L=0 0:    0.089 sec done=     29462 ( 92.1%) skipped=      2538 
    -> L=1 0:    0.094 sec done=     33438 ( 89.2%) skipped=      4062 
    -> L=1 1:    0.007 sec done=     10508 ( 87.6%) skipped=      1492 
    -> L=2 0:    0.005 sec done=     10832 ( 86.7%) skipped=      1668 
    -> L=2 1:    0.005 sec done=      6500 ( 86.7%) skipped=      1000 
    -> L=2 2:    0.001 sec done=      1500 (100.0%) skipped=         0 
    -> Aux basis density formed in    0.2 sec
    -> Solving linear equations - ok (   0.0 sec)
        Auxbasis Hermite Density:
        P|s>                     ...  0.000
        P|p>                     ...  0.000
        P|d>                     ...  0.000
        P|f>                     ...  0.000
        P|g>                     ...  0.000
        Building the Coulomb matrix: 
        J|ss>                          ... done (  0.0 sec) ndone=   164732 nskipped1=    10451 nskipped2=     2223
        J|ps>                          ... done (  0.1 sec) ndone=   170546 nskipped1=     6087 nskipped2=     2313
        J|pp>                          ... done (  0.0 sec) ndone=    48142 nskipped1=     1280 nskipped2=     1103
        J|ds>                          ... done (  0.0 sec) ndone=    40425 nskipped1=     1279 nskipped2=      589
        J|dp>                          ... done (  0.0 sec) ndone=    19237 nskipped1=      499 nskipped2=        0
        J|dd>                          ... done (  0.0 sec) ndone=     2400 nskipped1=        0 nskipped2=        0
        Coulomb matrix built in   0.1 sec

        Total time for Split-RI-J                ...    0.310 sec
          (0) Prelude                            ...    0.000 sec
          (1) Hermite density                    ...    0.000 sec
          (2) Aux basis density                  ...    0.000 sec (inner=  0.0)
          (3) Linear equation solution           ...    0.000 sec
          (4) J-Matrix construction              ...    0.104 sec (inner=  0.1)
        ---------------------------------------------------------

                         ----------------------------
                         !        ITERATION    11   !
                         ----------------------------
   Total Energy        :    -209.897169542871 Eh
   Energy Change       :       0.000000000398 Eh
   MAX-DP              :       0.000019800408
   RMS-DP              :       0.000000851010
   Orbital gradient    :       0.000012345378
   Orbital Rotation    :       0.000017116153
   Actual Damping      :       0.0000
   Int. Num. El.       :    35.99997149 (UP=   17.99998575 DN=   17.99998575)
   Exchange            :   -23.10134885
   Correlation         :    -1.41754089

==>> SHARK/AuxDens: NDens=1 Thresh =     2.500000e-11 TCut=    2.500000e-12 Lmax=2 LmaxAux=4
    -> Making Hermite density - ok     0.002 sec
    -> Making Aux-basis density - (lmax=2)
    -> L=0 0:    0.089 sec done=     29398 ( 91.9%) skipped=      2602 
    -> L=1 0:    0.014 sec done=     32956 ( 87.9%) skipped=      4544 
    -> L=1 1:    0.006 sec done=     10204 ( 85.0%) skipped=      1796 
    -> L=2 0:    0.004 sec done=     10632 ( 85.1%) skipped=      1868 
    -> L=2 1:    0.075 sec done=      6500 ( 86.7%) skipped=      1000 
    -> L=2 2:    0.001 sec done=      1500 (100.0%) skipped=         0 
    -> Aux basis density formed in    0.2 sec
    -> Solving linear equations - ok (   0.0 sec)
        Auxbasis Hermite Density:
        P|s>                     ...  0.000
        P|p>                     ...  0.000
        P|d>                     ...  0.000
        P|f>                     ...  0.000
        P|g>                     ...  0.000
        Building the Coulomb matrix: 
        J|ss>                          ... done (  0.0 sec) ndone=   163750 nskipped1=    11391 nskipped2=     2159
        J|ps>                          ... done (  0.0 sec) ndone=   168001 nskipped1=     7940 nskipped2=     2247
        J|pp>                          ... done (  0.1 sec) ndone=    47678 nskipped1=     1732 nskipped2=      971
        J|ds>                          ... done (  0.0 sec) ndone=    38848 nskipped1=     2402 nskipped2=      544
        J|dp>                          ... done (  0.0 sec) ndone=    18998 nskipped1=      643 nskipped2=        0
        J|dd>                          ... done (  0.0 sec) ndone=     2400 nskipped1=        0 nskipped2=        0
        Coulomb matrix built in   0.1 sec

        Total time for Split-RI-J                ...    0.301 sec
          (0) Prelude                            ...    0.000 sec
          (1) Hermite density                    ...    0.000 sec
          (2) Aux basis density                  ...    0.000 sec (inner=  0.0)
          (3) Linear equation solution           ...    0.000 sec
          (4) J-Matrix construction              ...    0.107 sec (inner=  0.1)
        ---------------------------------------------------------
                 **** Energy Check signals convergence ****
              ***Rediagonalizing the Fockian in SOSCF/NRSCF***

               *****************************************************
               *                     SUCCESS                       *
               *           SCF CONVERGED AFTER  12 CYCLES          *
               *****************************************************

Old exchange energy                            =     -5.817143632 Eh
New exchange energy                            =     -5.817148518 Eh
Exchange energy change after final integration =     -0.000004885 Eh
Total energy after final integration           =   -209.897174429 Eh
Final COS-X integration done in                =    13.108 sec

----------------
TOTAL SCF ENERGY
----------------

Total Energy       :         -209.89717443 Eh           -5711.59249 eV

Components:
Nuclear Repulsion  :          161.09930132 Eh            4383.73485 eV
Electronic Energy  :         -370.99647575 Eh          -10095.32734 eV
One Electron Energy:         -601.31467754 Eh          -16362.60423 eV
Two Electron Energy:          230.31820179 Eh            6267.27689 eV
Max COSX asymmetry :            0.00000346 Eh               0.00009 eV
CPCM Dielectric    :           -0.00965285 Eh              -0.26267 eV

Virial components:
Potential Energy   :         -417.64204308 Eh          -11364.61776 eV
Kinetic Energy     :          207.74486865 Eh            5653.02527 eV
Virial Ratio       :            2.01036033


DFT components:
N(Alpha)           :       17.999985746017 electrons
N(Beta)            :       17.999985746017 electrons
N(Total)           :       35.999971492033 electrons
E(X)               :      -23.101317415527 Eh       
E(C)               :       -1.417539433345 Eh       
E(XC)              :      -24.518856848872 Eh       
DFET-embed. en.    :        0.000000000000 Eh       
CPCM Solvation Model Properties:
Surface-charge          :           -0.01634875
Charge-correction       :            0.00007927 Eh               0.00216 eV
Free-energy (cav+disp)  :  This term is not implemented in the current solvation scheme

---------------
SCF CONVERGENCE
---------------

  Last Energy change         ...   -3.3398e-10  Tolerance :   1.0000e-08
  Last MAX-Density change    ...    3.1086e-15  Tolerance :   1.0000e-07
  Last RMS-Density change    ...    5.2657e-17  Tolerance :   5.0000e-09
  Last Orbital Gradient      ...    7.2526e-07  Tolerance :   1.0000e-05
  Last Orbital Rotation      ...    6.5278e-07  Tolerance :   1.0000e-05

             **** THE GBW FILE WAS UPDATED (Pyrrole_DFT.gbw) ****
             **** DENSITY Pyrrole_DFT.scfp WAS UPDATED ****
             **** ENERGY FILE WAS UPDATED (Pyrrole_DFT.en.tmp) ****
             **** THE GBW FILE WAS UPDATED (Pyrrole_DFT.gbw) ****
             **** DENSITY Pyrrole_DFT.scfp WAS UPDATED ****
----------------
ORBITAL ENERGIES
----------------

  NO   OCC          E(Eh)            E(eV) 
   0   2.0000     -14.362288      -390.8177 
   1   2.0000     -10.195694      -277.4389 
   2   2.0000     -10.195692      -277.4389 
   3   2.0000     -10.161747      -276.5152 
   4   2.0000     -10.161476      -276.5078 
   5   2.0000      -0.959490       -26.1090 
   6   2.0000      -0.758339       -20.6354 
   7   2.0000      -0.704962       -19.1830 
   8   2.0000      -0.576309       -15.6822 
   9   2.0000      -0.555073       -15.1043 
  10   2.0000      -0.531742       -14.4694 
  11   2.0000      -0.424519       -11.5517 
  12   2.0000      -0.412521       -11.2253 
  13   2.0000      -0.403595       -10.9824 
  14   2.0000      -0.383273       -10.4294 
  15   2.0000      -0.370988       -10.0951 
  16   2.0000      -0.244435        -6.6514 
  17   2.0000      -0.212041        -5.7699 
  18   0.0000       0.041175         1.1204 
  19   0.0000       0.073660         2.0044 
  20   0.0000       0.081900         2.2286 
  21   0.0000       0.117740         3.2039 
  22   0.0000       0.128947         3.5088 
  23   0.0000       0.140119         3.8128 
  24   0.0000       0.145862         3.9691 
  25   0.0000       0.235957         6.4207 
  26   0.0000       0.238776         6.4974 
  27   0.0000       0.289529         7.8785 
  28   0.0000       0.352668         9.5966 
  29   0.0000       0.364089         9.9074 
  30   0.0000       0.401914        10.9366 
  31   0.0000       0.440355        11.9827 
  32   0.0000       0.441243        12.0068 
  33   0.0000       0.487585        13.2679 
  34   0.0000       0.489315        13.3149 
  35   0.0000       0.515627        14.0309 
  36   0.0000       0.533523        14.5179 
  37   0.0000       0.537548        14.6274 
  38   0.0000       0.562136        15.2965 
  39   0.0000       0.626806        17.0563 
  40   0.0000       0.644419        17.5355 
  41   0.0000       0.664898        18.0928 
  42   0.0000       0.718527        19.5521 
  43   0.0000       0.719912        19.5898 
  44   0.0000       0.751702        20.4548 
  45   0.0000       0.752426        20.4746 
  46   0.0000       0.786693        21.4070 
  47   0.0000       0.811883        22.0925 
  48   0.0000       0.816981        22.2312 
  49   0.0000       0.934936        25.4409 
  50   0.0000       1.003909        27.3178 
  51   0.0000       1.060608        28.8606 
  52   0.0000       1.116671        30.3862 
  53   0.0000       1.163248        31.6536 
  54   0.0000       1.279254        34.8103 
  55   0.0000       1.280797        34.8523 
  56   0.0000       1.301668        35.4202 
[...]
 0 C  py              1.1       0.6       0.0       0.0       0.0       0.0
 0 C  dz2             3.7       0.3       0.0       0.0       0.0       0.0
 0 C  dxz             0.0       0.0      10.8       4.8      27.4       0.3
 0 C  dyz             0.0       0.0       6.8      30.1       0.6       6.6
 0 C  dx2y2           2.2       1.7       0.0       0.0       0.0       0.0
 0 C  dxy             5.4       5.5       0.0       0.0       0.0       0.0
 1 C  s               0.5       0.1       0.0       0.0       0.0       0.0
 1 C  pz              0.0       0.0       0.0       0.4       0.1       0.1
 1 C  px              1.3       1.8       0.0       0.0       0.0       0.0
 1 C  py              1.9       0.2       0.0       0.0       0.0       0.0
 1 C  dz2             1.9       0.2       0.0       0.0       0.0       0.0
 1 C  dxz             0.0       0.0       9.0       0.0       0.4      16.2
 1 C  dyz             0.0       0.0      13.3       5.7      14.0       0.0
 1 C  dx2y2           1.9       2.2       0.0       0.0       0.0       0.0
 1 C  dxy             1.7      12.2       0.0       0.0       0.0       0.0
 2 N  s               3.8       0.0       0.0       0.0       0.0       0.0
 2 N  pz              0.0       0.0       0.2       0.0       0.0       0.0
 2 N  px              3.0       2.2       0.0       0.0       0.0       0.0
 2 N  py              1.6       4.1       0.0       0.0       0.0       0.0
 2 N  dz2            14.7       0.0       0.0       0.0       0.0       0.0
 2 N  dxz             0.0       0.0       6.1       5.3       0.0      18.3
 2 N  dyz             0.0       0.0       2.9      10.7       0.0      34.9
 2 N  dx2y2           0.0       8.7       0.0       0.0       0.0       0.0
 2 N  dxy             0.0       0.9       0.0       0.0       0.0       0.0
 3 C  s               0.5       0.1       0.0       0.0       0.0       0.0
 3 C  pz              0.0       0.0       0.0       0.3       0.1       0.1
 3 C  px              1.0       0.1       0.0       0.0       0.0       0.0
 3 C  py              2.2       2.0       0.0       0.0       0.0       0.0
 3 C  dz2             1.8       0.3       0.0       0.0       0.0       0.0
 3 C  dxz             0.0       0.0      20.0       4.3      14.1       1.5
 3 C  dyz             0.0       0.0       2.8       0.9       0.3      14.7
 3 C  dx2y2           0.1      10.6       0.0       0.0       0.0       0.0
 3 C  dxy             3.4       3.8       0.0       0.0       0.0       0.0
 4 C  s               0.7       0.4       0.0       0.0       0.0       0.0
 4 C  pz              0.0       0.0       0.1       0.0       0.1       0.0
 4 C  px              0.9       1.1       0.0       0.0       0.0       0.0
 4 C  py              0.5       2.3       0.0       0.0       0.0       0.0
 4 C  dz2             3.8       0.3       0.0       0.0       0.0       0.0
 4 C  dxz             0.0       0.0      13.4      19.4       5.6       5.1
 4 C  dyz             0.0       0.0       4.7      15.0      22.4       1.8
 4 C  dx2y2           0.0       6.0       0.0       0.0       0.0       0.0
 4 C  dxy             7.5       1.3       0.0       0.0       0.0       0.0
 5 H  s               0.0       0.2       0.0       0.0       0.0       0.0
 5 H  pz              0.0       0.0       1.9       1.1       5.1       0.1
 5 H  px              0.1       3.3       0.0       0.0       0.0       0.0
 5 H  py              3.8       0.6       0.0       0.0       0.0       0.0
 6 H  s               0.4       0.1       0.0       0.0       0.0       0.0
 6 H  pz              0.0       0.0       2.3       0.5       2.3       0.0
 6 H  px              0.0       7.2       0.0       0.0       0.0       0.0
 6 H  py              6.7       2.5       0.0       0.0       0.0       0.0
 7 H  s               1.1       0.0       0.0       0.0       0.0       0.0
 7 H  pz              0.0       0.0       1.2       0.0       0.0       0.0
 7 H  px              5.7       0.0       0.0       0.0       0.0       0.0
 7 H  py              3.0       0.0       0.0       0.0       0.0       0.0
 8 H  s               0.4       0.1       0.0       0.0       0.0       0.0
 8 H  pz              0.0       0.0       2.4       0.4       2.3       0.0
 8 H  px              6.1       5.5       0.0       0.0       0.0       0.0
 8 H  py              0.6       4.2       0.0       0.0       0.0       0.0
 9 H  s               0.0       0.2       0.0       0.0       0.0       0.0
 9 H  pz              0.0       0.0       1.8       1.2       5.1       0.1
 9 H  px              3.8       0.0       0.0       0.0       0.0       0.0
 9 H  py              0.1       3.9       0.0       0.0       0.0       0.0

                     84        85        86        87        88        89   
                   2.68525   2.68541   2.73432   2.77169   2.77370   2.86657
                   0.00000   0.00000   0.00000   0.00000   0.00000   0.00000
                  --------  --------  --------  --------  --------  --------
 0 C  s               6.1       3.4       0.0       1.4       0.1       0.6
 0 C  px              0.2       2.9       0.0       1.9       4.4       0.2
 0 C  py              0.2       0.1       0.0       0.3       0.5       0.5
 0 C  dz2            15.0       2.5       0.0       2.4       0.1       0.7
 0 C  dxz             0.0       0.0       1.2       0.0       0.0       0.0
 0 C  dyz             0.0       0.0       0.2       0.0       0.0       0.0
 0 C  dx2y2           7.4       2.9       0.0       1.5       2.0       0.1
 0 C  dxy             1.5       0.3       0.0       1.8       5.3       1.1
 1 C  s               3.4       1.1       0.0       0.5       0.1       5.6
 1 C  pz              0.0       0.0       0.1       0.0       0.0       0.0
 1 C  px              0.3       0.0       0.0       0.3       0.9       0.3
 1 C  py              0.1       1.9       0.0       4.8       1.2       0.2
 1 C  dz2             7.3       0.0       0.0       1.0       0.2       8.0
 1 C  dxz             0.0       0.0       3.1       0.0       0.0       0.0
 1 C  dyz             0.0       0.0       9.1       0.0       0.0       0.0
 1 C  dx2y2           0.7       1.5       0.0       5.3       1.5       0.0
 1 C  dxy             1.8       3.2       0.0       2.6      14.7       3.1
 2 N  s               0.0       0.8       0.0       0.0       0.1       4.6
 2 N  px              0.4       1.8       0.0       0.4       3.7       0.1
 2 N  py              0.8       0.9       0.0       0.8       1.9       0.1
 2 N  dz2             0.0       0.2       0.0       0.0       0.8      28.7
 2 N  dxz             0.0       0.0      40.1       0.0       0.0       0.0
 2 N  dyz             0.0       0.0      21.0       0.0       0.0       0.0
 2 N  dx2y2           0.0       0.0       0.0       0.5       0.3       1.4
 2 N  dxy             0.0       0.0       0.0       0.0       2.6      13.4
 3 C  s               3.4       1.1       0.0       0.5       0.1       5.6
 3 C  pz              0.0       0.0       0.1       0.0       0.0       0.0
 3 C  px              0.0       1.6       0.0       3.6       2.0       0.3
 3 C  py              0.4       0.3       0.0       1.4       0.3       0.2
 3 C  dz2             7.3       0.0       0.0       0.9       0.3       8.0
 3 C  dxz             0.0       0.0       5.4       0.0       0.0       0.0
 3 C  dyz             0.0       0.0       6.8       0.0       0.0       0.0
 3 C  dx2y2           0.0       0.0       0.0       1.0      10.4       1.2
 3 C  dxy             2.6       4.7       0.0       6.6       6.1       2.0
 4 C  s               6.1       3.4       0.0       1.4       0.1       0.6
 4 C  px              0.1       0.1       0.0       0.0       1.7       0.6
 4 C  py              0.3       2.9       0.0       2.4       3.0       0.0
 4 C  dz2            15.1       2.5       0.0       2.5       0.1       0.7
 4 C  dxz             0.0       0.0       0.6       0.0       0.0       0.0
 4 C  dyz             0.0       0.0       0.8       0.0       0.0       0.0
 4 C  dx2y2           2.1       1.1       0.0       0.1       6.3       0.9
 4 C  dxy             6.7       2.2       0.0       3.1       1.1       0.4
 5 H  s               0.2       3.9       0.0       2.2       2.0       0.0
 5 H  pz              0.0       0.0       0.2       0.0       0.0       0.0
 5 H  px              1.5      13.7       0.0       6.8       5.4       0.1
 5 H  py              0.1       0.1       0.0       0.2       0.4       0.0
 6 H  s               0.6       1.7       0.0       4.2       0.4       1.1
 6 H  pz              0.0       0.0       1.5       0.0       0.0       0.0
 6 H  px              0.1       0.0       0.0       0.1       1.0       1.8
 6 H  py              2.6       6.2       0.0      11.8       1.8       2.3
 7 H  s               0.0       1.5       0.0       0.0       2.3       0.0
 7 H  pz              0.0       0.0       7.9       0.0       0.0       0.0
 7 H  px              0.2       2.4       0.0       0.1       2.8       0.1
 7 H  py              0.5       1.2       0.0       0.1       1.5       0.0
 8 H  s               0.6       1.7       0.0       4.1       0.5       1.1
 8 H  pz              0.0       0.0       1.5       0.0       0.0       0.0
 8 H  px              2.0       5.5       0.0       9.6       2.9       1.0
 8 H  py              0.7       0.7       0.0       2.0       0.2       3.1
 9 H  s               0.2       3.9       0.0       2.3       1.8       0.0
 9 H  pz              0.0       0.0       0.2       0.0       0.0       0.0
 9 H  px              0.4       0.8       0.0       0.2       1.7       0.0
 9 H  py              1.2      13.0       0.0       7.3       3.7       0.1

                     90        91        92        93        94   
                   2.95952   2.96510   3.30259   3.50250   3.60005
                   0.00000   0.00000   0.00000   0.00000   0.00000
                  --------  --------  --------  --------  --------
 0 C  s               1.1       0.4       0.1       1.0       0.1
 0 C  px              0.1       0.0       0.0       1.2       0.0
 0 C  py              0.1       1.6       1.2       0.0       0.1
 0 C  dz2             1.0       0.1       0.0       1.7       0.2
 0 C  dx2y2           2.9       0.7       0.0      21.2       2.0
 0 C  dxy             2.6      22.6       7.1       0.0       0.3
 1 C  s               0.3       3.5       0.0       0.4       0.4
 1 C  px              0.9       0.2       2.2       0.1       0.2
 1 C  py              0.3       0.7       0.0       0.6       0.3
 1 C  dz2             0.0       1.8       0.0       0.8       0.8
 1 C  dx2y2          10.2       0.4       5.0       7.4       8.3
 1 C  dxy             1.6       0.0      10.1       1.7       3.1
 2 N  s               6.8       0.0       0.0       0.0       1.5
 2 N  px              0.5       0.3       0.7       0.1       1.5
 2 N  py              0.3       0.6       1.3       0.2       0.8
 2 N  dz2            19.1       0.0       0.0       0.0       3.6
 2 N  dx2y2           0.2      22.2      35.1       1.1       3.6
 2 N  dxy             1.6       2.4       3.8       0.1      33.3
 3 C  s               0.3       3.5       0.0       0.4       0.4
 3 C  px              0.1       0.5       0.2       0.6       0.2
 3 C  py              1.2       0.4       2.1       0.1       0.3
 3 C  dz2             0.0       1.8       0.0       0.8       0.8
 3 C  dx2y2          11.1       0.3      13.6       2.0       1.6
 3 C  dxy             0.8       0.2       1.5       7.1       9.8
 4 C  s               1.1       0.4       0.1       1.0       0.1
 4 C  px              0.0       1.4       1.3       0.0       0.1
 4 C  py              0.1       0.2       0.0       1.1       0.0
 4 C  dz2             1.0       0.1       0.0       1.7       0.2
 4 C  dx2y2           0.2      12.2       2.0      14.8       0.6
 4 C  dxy             5.4      11.1       5.2       6.5       1.7
 5 H  s               0.8       0.2       0.0       4.7       0.4
 5 H  px              1.6       0.3       0.0       4.2       0.3
 5 H  py              0.6       3.3       0.8       0.0       0.2
 6 H  s               1.3       0.2       0.1       2.1       2.1
 6 H  px              1.3       0.2       1.5       0.2       0.0
 6 H  py              1.7       0.3       0.0       1.8       1.9
 7 H  s               5.0       0.0       0.0       0.0       8.0
 7 H  px              6.2       0.4       0.8       0.2       3.9
 7 H  py              3.3       0.8       1.5       0.3       2.1
 8 H  s               1.3       0.2       0.1       2.1       2.1
 8 H  px              0.8       0.2       0.1       1.3       1.7
 8 H  py              2.3       0.4       1.5       0.7       0.2
 9 H  s               0.8       0.2       0.0       4.7       0.4
 9 H  px              0.1       3.6       0.7       0.5       0.0
 9 H  py              2.1       0.0       0.1       3.7       0.5


                      *****************************
                      * MAYER POPULATION ANALYSIS *
                      *****************************

  NA   - Mulliken gross atomic population
  ZA   - Total nuclear charge
  QA   - Mulliken gross atomic charge
  VA   - Mayer's total valence
  BVA  - Mayer's bonded valence
  FA   - Mayer's free valence

  ATOM       NA         ZA         QA         VA         BVA        FA
  0 C      6.0695     6.0000    -0.0695     3.8075     3.8075     0.0000
  1 C      5.9869     6.0000     0.0131     3.8183     3.8183    -0.0000
  2 N      7.0681     7.0000    -0.0681     3.5036     3.5036     0.0000
  3 C      5.9868     6.0000     0.0132     3.8180     3.8180     0.0000
  4 C      6.0689     6.0000    -0.0689     3.8072     3.8072    -0.0000
  5 H      1.0069     1.0000    -0.0069     0.9876     0.9876    -0.0000
  6 H      0.9835     1.0000     0.0165     0.9904     0.9904     0.0000
  7 H      0.8387     1.0000     0.1613     0.9786     0.9786     0.0000
  8 H      0.9837     1.0000     0.0163     0.9904     0.9904     0.0000
  9 H      1.0069     1.0000    -0.0069     0.9875     0.9875     0.0000

  Mayer bond orders larger than 0.100000
B(  0-C ,  1-C ) :   1.4761 B(  0-C ,  4-C ) :   1.2939 B(  0-C ,  5-H ) :   1.0076 
B(  1-C ,  2-N ) :   1.2396 B(  1-C ,  6-H ) :   0.9941 B(  2-N ,  3-C ) :   1.2395 
B(  2-N ,  7-H ) :   0.9329 B(  3-C ,  4-C ) :   1.4759 B(  3-C ,  8-H ) :   0.9942 
B(  4-C ,  9-H ) :   1.0076 

-------
TIMINGS
-------

Total SCF time: 0 days 0 hours 0 min 54 sec 

Total time                  ....      54.003 sec
Sum of individual times     ....      53.459 sec  ( 99.0%)

Fock matrix formation       ....      50.089 sec  ( 92.8%)
  Split-RI-J                ....       2.802 sec  (  5.6% of F)
  Chain of spheres X        ....      34.487 sec  ( 68.9% of F)
  XC integration            ....       9.443 sec  ( 18.9% of F)
    Basis function eval.    ....       3.603 sec  ( 38.2% of XC)
    Density eval.           ....       1.946 sec  ( 20.6% of XC)
    XC-Functional eval.     ....       0.909 sec  (  9.6% of XC)
    XC-Potential eval.      ....       2.725 sec  ( 28.9% of XC)
Diagonalization             ....       0.083 sec  (  0.2%)
Density matrix formation    ....       0.001 sec  (  0.0%)
Population analysis         ....       0.197 sec  (  0.4%)
Initial guess               ....       0.003 sec  (  0.0%)
Orbital Transformation      ....       0.000 sec  (  0.0%)
Orbital Orthonormalization  ....       0.001 sec  (  0.0%)
DIIS solution               ....       0.000 sec  (  0.0%)
SOSCF solution              ....       0.089 sec  (  0.2%)
Grid generation             ....       2.996 sec  (  5.5%)

Maximum memory used throughout the entire SCF-calculation: 54.0 MB

-------------------------   --------------------
FINAL SINGLE POINT ENERGY      -209.897665113262
-------------------------   --------------------

                                *** OPTIMIZATION RUN DONE ***

                            ***************************************
                            *     ORCA property calculations      *
                            ***************************************

                                    ---------------------
                                    Active property flags
                                    ---------------------
   (+) Dipole Moment


------------------------------------------------------------------------------
                       ORCA ELECTRIC PROPERTIES CALCULATION
------------------------------------------------------------------------------

Dipole Moment Calculation                       ... on
Quadrupole Moment Calculation                   ... off
Polarizability Calculation                      ... off
GBWName                                         ... Pyrrole_DFT.gbw
Electron density                                ... Pyrrole_DFT.scfp
SHARK General Contraction Test:  Segmented basis detected
   -> Pre-screening matrix found on disk - Trying to read with NShells=45
   -> Passing Pre-screening matrix on to SHARK ...ok
   -> Leaving CheckPreScreeningMatrix
----------------------
SHARK INTEGRAL PACKAGE
----------------------

Number of atoms                             ...     10
Number of basis functions                   ...     95
Number of shells                            ...     45
Maximum angular momentum                    ...      2
Integral batch strategy                     ... SHARK/LIBINT Hybrid
RI-J (if used) integral strategy            ... SPLIT-RIJ (Revised 2003 algorithm where possible)
Printlevel                                  ...      2
Contraction scheme used                     ... SEGMENTED contraction
Coulomb Range Separation                    ... NOT USED
Exchange Range Separation                   ... NOT USED
Finite Nucleus Model                        ... NOT USED
Auxiliary Coulomb fitting basis             ... AVAILABLE
   # of basis functions in Aux-J            ...    300
   # of shells in Aux-J                     ...    100
   Maximum angular momentum in Aux-J        ...      4
Auxiliary J/K fitting basis                 ... NOT available
Auxiliary Correlation fitting basis         ... NOT available
Auxiliary 'external' fitting basis          ... NOT available
Integral threshold                          ...     2.500000e-11
Primitive cut-off                           ...     2.500000e-12
Primitive pair pre-selection threshold      ...     2.500000e-12

The origin for moment calculation is the CENTER OF MASS  = ( 0.034026,  0.023040  0.000861)

-------------
DIPOLE MOMENT
-------------
                                X             Y             Z
Electronic contribution:      0.88767       0.64258      -0.00050
Nuclear contribution   :     -0.01492      -0.01055       0.00000
                        -----------------------------------------
Total Dipole Moment    :      0.87275       0.63203      -0.00049
                        -----------------------------------------
Magnitude (a.u.)       :      1.07757
Magnitude (Debye)      :      2.73897



--------------------
Rotational spectrum 
--------------------
 
Rotational constants in cm-1:     0.304023     0.297800     0.150440 
Rotational constants in MHz :  9114.383891  8927.833106  4510.072031 

 Dipole components along the rotational axes: 
x,y,z [a.u.] :     1.077560     0.005031    -0.000001 
x,y,z [Debye]:     2.738939     0.012787    -0.000003 

 

Timings for individual modules:

Sum of individual times         ...      432.425 sec (=   7.207 min)
GTO integral calculation        ...        2.611 sec (=   0.044 min)   0.6 %
SCF iterations                  ...      348.705 sec (=   5.812 min)  80.6 %
SCF Gradient evaluation         ...       80.491 sec (=   1.342 min)  18.6 %
Geometry relaxation             ...        0.619 sec (=   0.010 min)   0.1 %
                             ****ORCA TERMINATED NORMALLY****
TOTAL RUN TIME: 0 days 0 hours 7 minutes 14 seconds 694 msec
