
                                 *****************
                                 * O   R   C   A *
                                 *****************

                                            #,                                       
                                            ###                                      
                                            ####                                     
                                            #####                                    
                                            ######                                   
                                           ########,                                 
                                     ,,################,,,,,                         
                               ,,#################################,,                 
                          ,,##########################################,,             
                       ,#########################################, ''#####,          
                    ,#############################################,,   '####,        
                  ,##################################################,,,,####,       
                ,###########''''           ''''###############################       
              ,#####''   ,,,,##########,,,,          '''####'''          '####       
            ,##' ,,,,###########################,,,                        '##       
           ' ,,###''''                  '''############,,,                           
         ,,##''                                '''############,,,,        ,,,,,,###''
      ,#''                                            '''#######################'''  
     '                                                          ''''####''''         
             ,#######,   #######,   ,#######,      ##                                
            ,#'     '#,  ##    ##  ,#'     '#,    #''#        ######   ,####,        
            ##       ##  ##   ,#'  ##            #'  '#       #        #'  '#        
            ##       ##  #######   ##           ,######,      #####,   #    #        
            '#,     ,#'  ##    ##  '#,     ,#' ,#      #,         ##   #,  ,#        
             '#######'   ##     ##  '#######'  #'      '#     #####' # '####'        



                  #######################################################
                  #                        -***-                        #
                  #          Department of theory and spectroscopy      #
                  #    Directorship and core code : Frank Neese         #
                  #        Max Planck Institute fuer Kohlenforschung    #
                  #                Kaiser Wilhelm Platz 1               #
                  #                 D-45470 Muelheim/Ruhr               #
                  #                      Germany                        #
                  #                                                     #
                  #                  All rights reserved                #
                  #                        -***-                        #
                  #######################################################


                         Program Version 5.0.4 -  RELEASE  -


 With contributions from (in alphabetic order):
   Daniel Aravena         : Magnetic Suceptibility
   Michael Atanasov       : Ab Initio Ligand Field Theory (pilot matlab implementation)
   Alexander A. Auer      : GIAO ZORA, VPT2 properties, NMR spectrum
   Ute Becker             : Parallelization
   Giovanni Bistoni       : ED, misc. LED, open-shell LED, HFLD
   Martin Brehm           : Molecular dynamics
   Dmytro Bykov           : SCF Hessian
   Vijay G. Chilkuri      : MRCI spin determinant printing, contributions to CSF-ICE
   Dipayan Datta          : RHF DLPNO-CCSD density
   Achintya Kumar Dutta   : EOM-CC, STEOM-CC
   Dmitry Ganyushin       : Spin-Orbit,Spin-Spin,Magnetic field MRCI
   Miquel Garcia          : C-PCM and meta-GGA Hessian, CC/C-PCM, Gaussian charge scheme
   Yang Guo               : DLPNO-NEVPT2, F12-NEVPT2, CIM, IAO-localization
   Andreas Hansen         : Spin unrestricted coupled pair/coupled cluster methods
   Benjamin Helmich-Paris : MC-RPA, TRAH-SCF, COSX integrals
   Lee Huntington         : MR-EOM, pCC
   Robert Izsak           : Overlap fitted RIJCOSX, COSX-SCS-MP3, EOM
   Marcus Kettner         : VPT2
   Christian Kollmar      : KDIIS, OOCD, Brueckner-CCSD(T), CCSD density, CASPT2, CASPT2-K
   Simone Kossmann        : Meta GGA functionals, TD-DFT gradient, OOMP2, MP2 Hessian
   Martin Krupicka        : Initial AUTO-CI
   Lucas Lang             : DCDCAS
   Marvin Lechner         : AUTO-CI (C++ implementation), FIC-MRCC
   Dagmar Lenk            : GEPOL surface, SMD
   Dimitrios Liakos       : Extrapolation schemes; Compound Job, initial MDCI parallelization
   Dimitrios Manganas     : Further ROCIS development; embedding schemes
   Dimitrios Pantazis     : SARC Basis sets
   Anastasios Papadopoulos: AUTO-CI, single reference methods and gradients
   Taras Petrenko         : DFT Hessian,TD-DFT gradient, ASA, ECA, R-Raman, ABS, FL, XAS/XES, NRVS
   Peter Pinski           : DLPNO-MP2, DLPNO-MP2 Gradient
   Christoph Reimann      : Effective Core Potentials
   Marius Retegan         : Local ZFS, SOC
   Christoph Riplinger    : Optimizer, TS searches, QM/MM, DLPNO-CCSD(T), (RO)-DLPNO pert. Triples
   Tobias Risthaus        : Range-separated hybrids, TD-DFT gradient, RPA, STAB
   Michael Roemelt        : Original ROCIS implementation
   Masaaki Saitow         : Open-shell DLPNO-CCSD energy and density
   Barbara Sandhoefer     : DKH picture change effects
   Avijit Sen             : IP-ROCIS
   Kantharuban Sivalingam : CASSCF convergence, NEVPT2, FIC-MRCI
   Bernardo de Souza      : ESD, SOC TD-DFT
   Georgi Stoychev        : AutoAux, RI-MP2 NMR, DLPNO-MP2 response
   Willem Van den Heuvel  : Paramagnetic NMR
   Boris Wezisla          : Elementary symmetry handling
   Frank Wennmohs         : Technical directorship


 We gratefully acknowledge several colleagues who have allowed us to
 interface, adapt or use parts of their codes:
   Stefan Grimme, W. Hujo, H. Kruse, P. Pracht,  : VdW corrections, initial TS optimization,
                  C. Bannwarth, S. Ehlert          DFT functionals, gCP, sTDA/sTD-DF
   Ed Valeev, F. Pavosevic, A. Kumar             : LibInt (2-el integral package), F12 methods
   Garnet Chan, S. Sharma, J. Yang, R. Olivares  : DMRG
   Ulf Ekstrom                                   : XCFun DFT Library
   Mihaly Kallay                                 : mrcc  (arbitrary order and MRCC methods)
   Jiri Pittner, Ondrej Demel                    : Mk-CCSD
   Frank Weinhold                                : gennbo (NPA and NBO analysis)
   Christopher J. Cramer and Donald G. Truhlar   : smd solvation model
   Lars Goerigk                                  : TD-DFT with DH, B97 family of functionals
   V. Asgeirsson, H. Jonsson                     : NEB implementation
   FAccTs GmbH                                   : IRC, NEB, NEB-TS, DLPNO-Multilevel, CI-OPT
                                                   MM, QMMM, 2- and 3-layer-ONIOM, Crystal-QMMM,
                                                   LR-CPCM, SF, NACMEs, symmetry and pop. for TD-DFT,
                                                   nearIR, NL-DFT gradient (VV10), updates on ESD,
                                                   ML-optimized integration grids
   S Lehtola, MJT Oliveira, MAL Marques          : LibXC Library
   Liviu Ungur et al                             : ANISO software


 Your calculation uses the libint2 library for the computation of 2-el integrals
 For citations please refer to: http://libint.valeyev.net

 Your ORCA version has been built with support for libXC version: 5.1.0
 For citations please refer to: https://tddft.org/programs/libxc/

 This ORCA versions uses:
   CBLAS   interface :  Fast vector & matrix operations
   LAPACKE interface :  Fast linear algebra routines
   SCALAPACK package :  Parallel linear algebra routines
   Shared memory     :  Shared parallel matrices
   BLAS/LAPACK       :  OpenBLAS 0.3.15  USE64BITINT DYNAMIC_ARCH NO_AFFINITY SkylakeX SINGLE_THREADED
        Core in use  :  SkylakeX
   Copyright (c) 2011-2014, The OpenBLAS Project


================================================================================

----- Orbital basis set information -----
Your calculation utilizes the basis: def2-SVP
   F. Weigend and R. Ahlrichs, Phys. Chem. Chem. Phys. 7, 3297 (2005).

----- AuxJ basis set information -----
Your calculation utilizes the auxiliary basis: def2/J
   F. Weigend, Phys. Chem. Chem. Phys. 8, 1057 (2006).

================================================================================
                                        WARNINGS
                       Please study these warnings very carefully!
================================================================================


WARNING: Geometry Optimization
  ===> : Switching off AutoStart
         For restart on a previous wavefunction, please use MOREAD

INFO   : the flag for use of the SHARK integral package has been found!

================================================================================
                                       INPUT FILE
================================================================================
NAME = CaCl2_DFT.inp
|  1> ## avogadro generated ORCA input file 
|  2> # Advanced Mode
|  3> # 
|  4> ! B3LYP OPT def2-SVP NormalPrint defgrid2 NormalSCF 
|  5> 
|  6> ! CPCM
|  7> %cpcm
|  8> epsilon 69.0
|  9> refrac 1.34
| 10> end
| 11> 
| 12> %scf
| 13> 	MaxIter 125
| 14> 	CNVDIIS 1
| 15> 	CNVSOSCF 1 
| 16> end
| 17> 
| 18> * xyz -8 1
| 19>   Cl        2.82569       -1.62915       -0.50434
| 20>   Cl       -0.43201        2.03115        0.75569
| 21>   Ca        1.19683        0.20100        0.12567
| 22> *
| 23> 
| 24> 
| 25>                          ****END OF INPUT****
================================================================================

                       *****************************
                       * Geometry Optimization Run *
                       *****************************

Geometry optimization settings:
Update method            Update   .... BFGS
Choice of coordinates    CoordSys .... Z-matrix Internals
Initial Hessian          InHess   .... Almoef's Model

Convergence Tolerances:
Energy Change            TolE     ....  5.0000e-06 Eh
Max. Gradient            TolMAXG  ....  3.0000e-04 Eh/bohr
RMS Gradient             TolRMSG  ....  1.0000e-04 Eh/bohr
Max. Displacement        TolMAXD  ....  4.0000e-03 bohr
RMS Displacement         TolRMSD  ....  2.0000e-03 bohr
Strict Convergence                ....  False
------------------------------------------------------------------------------
                        ORCA OPTIMIZATION COORDINATE SETUP
------------------------------------------------------------------------------

The optimization will be done in new redundant internal coordinates
Making redundant internal coordinates   ...  (new redundants) done
Evaluating the initial hessian          ...  (Almloef) done
Evaluating the coordinates              ...  done
Calculating the B-matrix                .... done
Calculating the G-matrix                .... done
Diagonalizing the G-matrix              .... done
The first mode is                       ....    0
The number of degrees of freedom        ....    4

    -----------------------------------------------------------------
                    Redundant Internal Coordinates


    -----------------------------------------------------------------
         Definition                    Initial Value    Approx d2E/dq
    -----------------------------------------------------------------
      1. B(Ca  2,Cl  1)                  2.5297         0.449358   
      2. B(Ca  2,Cl  0)                  2.5297         0.449341   
      3. L(Cl  0,Ca  2,Cl  1, 2)       179.9997         0.550604   
      4. L(Cl  0,Ca  2,Cl  1, 1)       180.0003         0.550604   
    -----------------------------------------------------------------

Number of atoms                         .... 3
Number of degrees of freedom            .... 4

         *************************************************************
         *                GEOMETRY OPTIMIZATION CYCLE   1            *
         *************************************************************
---------------------------------
CARTESIAN COORDINATES (ANGSTROEM)
---------------------------------
  Cl     2.825690   -1.629150   -0.504340
  Cl    -0.432010    2.031150    0.755690
  Ca     1.196830    0.201000    0.125670

----------------------------
CARTESIAN COORDINATES (A.U.)
----------------------------
  NO LB      ZA    FRAG     MASS         X           Y           Z
   0 Cl   17.0000    0    35.453    5.339780   -3.078647   -0.953064
   1 Cl   17.0000    0    35.453   -0.816381    3.838317    1.428047
   2 Ca   20.0000    0    40.080    2.261681    0.379835    0.237482

--------------------------------
INTERNAL COORDINATES (ANGSTROEM)
--------------------------------
 Cl     0   0   0     0.000000000000     0.00000000     0.00000000
 Cl     1   0   0     5.059454612989     0.00000000     0.00000000
 Ca     2   1   0     2.529722112901     0.00022424     0.00000000

---------------------------
INTERNAL COORDINATES (A.U.)
---------------------------
 Cl     0   0   0     0.000000000000     0.00000000     0.00000000
 Cl     1   0   0     9.560983605555     0.00000000     0.00000000
 Ca     2   1   0     4.780481988307     0.00022424     0.00000000

---------------------
BASIS SET INFORMATION
---------------------
There are 2 groups of distinct atoms

 Group   1 Type Cl  : 10s7p1d contracted to 4s3p1d pattern {5311/511/1}
 Group   2 Type Ca  : 14s9p4d contracted to 5s3p2d pattern {63311/531/31}

Atom   0Cl   basis set group =>   1
Atom   1Cl   basis set group =>   1
Atom   2Ca   basis set group =>   2
---------------------------------
AUXILIARY/J BASIS SET INFORMATION
---------------------------------
There are 2 groups of distinct atoms

 Group   1 Type Cl  : 14s5p5d2f1g contracted to 8s4p3d1f1g pattern {71111111/2111/311/2/1}
 Group   2 Type Ca  : 19s5p5d3f1g contracted to 8s4p4d1f1g pattern {121111111/2111/2111/3/1}

Atom   0Cl   basis set group =>   1
Atom   1Cl   basis set group =>   1
Atom   2Ca   basis set group =>   2
------------------------------------------------------------------------------
                           ORCA GTO INTEGRAL CALCULATION
                           -- RI-GTO INTEGRALS CHOSEN --
------------------------------------------------------------------------------
------------------------------------------------------------------------------
                   ___                                                        
                  /   \      - P O W E R E D   B Y -                         
                 /     \                                                     
                 |  |  |   _    _      __       _____    __    __             
                 |  |  |  | |  | |    /  \     |  _  \  |  |  /  |          
                  \  \/   | |  | |   /    \    | | | |  |  | /  /          
                 / \  \   | |__| |  /  /\  \   | |_| |  |  |/  /          
                |  |  |   |  __  | /  /__\  \  |    /   |      \           
                |  |  |   | |  | | |   __   |  |    \   |  |\   \          
                \     /   | |  | | |  |  |  |  | |\  \  |  | \   \       
                 \___/    |_|  |_| |__|  |__|  |_| \__\ |__|  \__/        
                                                                              
                      - O R C A' S   B I G   F R I E N D -                    
                                      &                                       
                       - I N T E G R A L  F E E D E R -                       
                                                                              
 v1 FN, 2020, v2 2021                                                         
------------------------------------------------------------------------------


Reading SHARK input file CaCl2_DFT.SHARKINP.tmp ... SHARK General Contraction Test:  Segmented basis detected
   -> Pre-screening matrix *NOT* found on disk - recalculating with NShells=26
   -> Leaving CheckPreScreeningMatrix
ok
----------------------
SHARK INTEGRAL PACKAGE
----------------------

Number of atoms                             ...      3
Number of basis functions                   ...     60
Number of shells                            ...     26
Maximum angular momentum                    ...      2
Integral batch strategy                     ... SHARK/LIBINT Hybrid
RI-J (if used) integral strategy            ... SPLIT-RIJ (Revised 2003 algorithm where possible)
Printlevel                                  ...      2
Contraction scheme used                     ... SEGMENTED contraction
Coulomb Range Separation                    ... NOT USED
Exchange Range Separation                   ... NOT USED
Finite Nucleus Model                        ... NOT USED
Auxiliary Coulomb fitting basis             ... AVAILABLE
   # of basis functions in Aux-J            ...    158
   # of shells in Aux-J                     ...     52
   Maximum angular momentum in Aux-J        ...      4
Auxiliary J/K fitting basis                 ... NOT available
Auxiliary Correlation fitting basis         ... NOT available
Auxiliary 'external' fitting basis          ... NOT available
Integral threshold                          ...     2.500000e-11
Primitive cut-off                           ...     2.500000e-12
Primitive pair pre-selection threshold      ...     2.500000e-12

Calculating pre-screening integrals         ... done (  0.1 sec) Dimension = 26
Organizing shell pair data                  ... done (  0.0 sec)
Shell pair information
Total number of shell pairs                 ...       351
Shell pairs after pre-screening             ...       303
Total number of primitive shell pairs       ...      2099
Primitive shell pairs kept                  ...      1411
          la=0 lb=0:     75 shell pairs
          la=1 lb=0:     99 shell pairs
          la=1 lb=1:     39 shell pairs
          la=2 lb=0:     48 shell pairs
          la=2 lb=1:     32 shell pairs
          la=2 lb=2:     10 shell pairs

Calculating one electron integrals          ... done (  0.0 sec)
Calculating RI/J V-Matrix + Cholesky decomp.... done (  0.1 sec)
Calculating Nuclear repulsion               ... done (  0.0 sec) ENN=    172.471794537678 Eh

SHARK setup successfully completed in   0.4 seconds

Maximum memory used throughout the entire GTOINT-calculation: 9.9 MB
-------------------------------------------------------------------------------
                                 ORCA SCF
-------------------------------------------------------------------------------

------------
SCF SETTINGS
------------
Hamiltonian:
 Density Functional     Method          .... DFT(GTOs)
 Exchange Functional    Exchange        .... B88
   X-Alpha parameter    XAlpha          ....  0.666667
   Becke's b parameter  XBeta           ....  0.004200
 Correlation Functional Correlation     .... LYP
 LDA part of GGA corr.  LDAOpt          .... VWN-5
 Gradients option       PostSCFGGA      .... off
 Hybrid DFT is turned on
   Fraction HF Exchange ScalHFX         ....  0.200000
   Scaling of DF-GGA-X  ScalDFX         ....  0.720000
   Scaling of DF-GGA-C  ScalDFC         ....  0.810000
   Scaling of DF-LDA-C  ScalLDAC        ....  1.000000
   Perturbative correction              ....  0.000000
   Density functional embedding theory  .... OFF
   NL short-range parameter             ....  4.800000
 RI-approximation to the Coulomb term is turned on
   Number of AuxJ basis functions       .... 158
   RIJ-COSX (HFX calculated with COS-X)).... on


General Settings:
 Integral files         IntName         .... CaCl2_DFT
 Hartree-Fock type      HFTyp           .... RHF
 Total Charge           Charge          ....   -8
 Multiplicity           Mult            ....    1
 Number of Electrons    NEL             ....   62
 Basis Dimension        Dim             ....   60
 Nuclear Repulsion      ENuc            ....    172.4717945377 Eh

Convergence Acceleration:
 DIIS                   CNVDIIS         .... on
   Start iteration      DIISMaxIt       ....    12
   Startup error        DIISStart       ....  0.200000
   # of expansion vecs  DIISMaxEq       ....     5
   Bias factor          DIISBfac        ....   1.050
   Max. coefficient     DIISMaxC        ....  10.000
 Trust-Rad. Augm. Hess. CNVTRAH         .... auto
   Auto Start mean grad. ratio tolernc. ....  1.125000
   Auto Start start iteration           ....    20
   Auto Start num. interpolation iter.  ....    10
   Max. Number of Micro iterations      ....    16
   Max. Number of Macro iterations      .... Maxiter - #DIIS iter
   Number of Davidson start vectors     ....     2
   Converg. threshold I  (grad. norm)   ....   1.000e-05
   Converg. threshold II (energy diff.) ....   1.000e-08
   Grad. Scal. Fac. for Micro threshold ....   0.100
   Minimum threshold for Micro iter.    ....   0.010
   NR start threshold (gradient norm)   ....   0.001
   Initial trust radius                 ....   0.400
   Minimum AH scaling param. (alpha)    ....   1.000
   Maximum AH scaling param. (alpha)    .... 1000.000
   Orbital update algorithm             .... Taylor
   White noise on init. David. guess    .... on
   Maximum white noise                  ....   0.010
   Quad. conv. algorithm                .... NR
 SOSCF                  CNVSOSCF        .... on
   Start iteration      SOSCFMaxIt      ....   150
   Startup grad/error   SOSCFStart      ....  0.003300
 Level Shifting         CNVShift        .... on
   Level shift para.    LevelShift      ....    0.2500
   Turn off err/grad.   ShiftErr        ....    0.0010
 Zerner damping         CNVZerner       .... off
 Static damping         CNVDamp         .... on
   Fraction old density DampFac         ....    0.7000
   Max. Damping (<1)    DampMax         ....    0.9800
   Min. Damping (>=0)   DampMin         ....    0.0000
   Turn off err/grad.   DampErr         ....    0.1000
 Fernandez-Rico         CNVRico         .... off

SCF Procedure:
 Maximum # iterations   MaxIter         ....   125
 SCF integral mode      SCFMode         .... Direct
   Integral package                     .... SHARK and LIBINT hybrid scheme
 Reset frequency        DirectResetFreq ....    20
 Integral Threshold     Thresh          ....  2.500e-11 Eh
 Primitive CutOff       TCut            ....  2.500e-12 Eh

Convergence Tolerance:
 Convergence Check Mode ConvCheckMode   .... Total+1el-Energy
 Convergence forced     ConvForced      .... 0
 Energy Change          TolE            ....  1.000e-08 Eh
 1-El. energy change                    ....  1.000e-05 Eh
 Orbital Gradient       TolG            ....  1.000e-05
 Orbital Rotation angle TolX            ....  1.000e-05
 DIIS Error             TolErr          ....  5.000e-07


Diagonalization of the overlap matrix:
Smallest eigenvalue                        ... 2.124e-02
Time for diagonalization                   ...    0.001 sec
Threshold for overlap eigenvalues          ... 1.000e-08
Number of eigenvalues below threshold      ... 0
Time for construction of square roots      ...    0.068 sec
Total time needed                          ...    0.069 sec

SHARK General Contraction Test:  Segmented basis detected
   -> Pre-screening matrix found on disk - Trying to read with NShells=26
   -> Passing Pre-screening matrix on to SHARK ...ok
   -> Leaving CheckPreScreeningMatrix
----------------------
SHARK INTEGRAL PACKAGE
----------------------

Number of atoms                             ...      3
Number of basis functions                   ...     60
Number of shells                            ...     26
Maximum angular momentum                    ...      2
Integral batch strategy                     ... SHARK/LIBINT Hybrid
RI-J (if used) integral strategy            ... SPLIT-RIJ (Revised 2003 algorithm where possible)
Printlevel                                  ...      2
Contraction scheme used                     ... SEGMENTED contraction
Coulomb Range Separation                    ... NOT USED
Exchange Range Separation                   ... NOT USED
Finite Nucleus Model                        ... NOT USED
Auxiliary Coulomb fitting basis             ... AVAILABLE
   # of basis functions in Aux-J            ...    158
   # of shells in Aux-J                     ...     52
   Maximum angular momentum in Aux-J        ...      4
Auxiliary J/K fitting basis                 ... NOT available
Auxiliary Correlation fitting basis         ... NOT available
Auxiliary 'external' fitting basis          ... NOT available
Integral threshold                          ...     2.500000e-11
Primitive cut-off                           ...     2.500000e-12
Primitive pair pre-selection threshold      ...     2.500000e-12

Time for model grid setup =    0.107 sec

------------------------------
INITIAL GUESS: MODEL POTENTIAL
------------------------------
Loading Hartree-Fock densities                     ... done
Calculating cut-offs                               ... done
Initializing the effective Hamiltonian             ... done
Setting up the integral package (SHARK)            ... done
Starting the Coulomb interaction                   ...     -> Generating integrals - 
    -> L=0 0 :     0.002 sec done=      3737 skipped=         9 prim-skipped=         0
    -> L=1 0 :     0.075 sec done=      4888 skipped=        32 prim-skipped=         0
    -> L=1 1 :     0.002 sec done=      1950 skipped=         0 prim-skipped=         0
    -> L=2 0 :     0.001 sec done=      2382 skipped=         2 prim-skipped=         0
    -> L=2 1 :     0.002 sec done=      1600 skipped=         0 prim-skipped=         0
    -> L=2 2 :     0.001 sec done=       484 skipped=         7 prim-skipped=         0
done (   0.1 sec)
Reading the grid                                   ... done
Mapping shells                                     ... done
Starting the XC term evaluation                    ... done (   0.0 sec)
  promolecular density results
     # of electrons  =     53.999802145
     EX              =    -90.243033037
     EC              =     -2.247964004
     EX+EC           =    -92.490997042
Transforming the Hamiltonian                       ... done (   0.0 sec)
Diagonalizing the Hamiltonian                      ... done (   0.0 sec)
Back transforming the eigenvectors                 ... done (   0.0 sec)
Now organizing SCF variables                       ... done
                      ------------------
                      INITIAL GUESS DONE (   0.2 sec)
                      ------------------
-------------------
DFT GRID GENERATION
-------------------

General Integration Accuracy     IntAcc      ... 4.388
Radial Grid Type                 RadialGrid  ... OptM3 with GC (2021)
Angular Grid (max. ang.)         AngularGrid ... 4 (Lebedev-302)
Angular grid pruning method      GridPruning ... 4 (adaptive)
Weight generation scheme         WeightScheme... Becke
Basis function cutoff            BFCut       ... 1.0000e-11
Integration weight cutoff        WCut        ... 1.0000e-14
Angular grids for H and He will be reduced by one unit
Partially contracted basis set               ... off
Rotationally invariant grid construction     ... off

Total number of grid points                  ...    26060
Total number of batches                      ...      409
Average number of points per batch           ...       63
Average number of grid points per atom       ...     8687
Time for grid setup =    0.610 sec

--------------------
COSX GRID GENERATION
--------------------

GRIDX 1
-------
General Integration Accuracy     IntAcc      ... 3.816
Radial Grid Type                 RadialGrid  ... OptM3 with GC (2021)
Angular Grid (max. ang.)         AngularGrid ... 1 (Lebedev-50)
Angular grid pruning method      GridPruning ... 4 (adaptive)
Weight generation scheme         WeightScheme... Becke
Basis function cutoff            BFCut       ... 1.0000e-11
Integration weight cutoff        WCut        ... 1.0000e-14
Angular grids for H and He will be reduced by one unit
Partially contracted basis set               ... on
Rotationally invariant grid construction     ... off

Total number of grid points                  ...     2924
Total number of batches                      ...       48
Average number of points per batch           ...       60
Average number of grid points per atom       ...      975
UseSFitting                                  ... on

GRIDX 2
-------
General Integration Accuracy     IntAcc      ... 4.020
Radial Grid Type                 RadialGrid  ... OptM3 with GC (2021)
Angular Grid (max. ang.)         AngularGrid ... 2 (Lebedev-110)
Angular grid pruning method      GridPruning ... 4 (adaptive)
Weight generation scheme         WeightScheme... Becke
Basis function cutoff            BFCut       ... 1.0000e-11
Integration weight cutoff        WCut        ... 1.0000e-14
Angular grids for H and He will be reduced by one unit
Partially contracted basis set               ... on
Rotationally invariant grid construction     ... off

Total number of grid points                  ...     6658
Total number of batches                      ...      105
Average number of points per batch           ...       63
Average number of grid points per atom       ...     2219
UseSFitting                                  ... on

GRIDX 3
-------
General Integration Accuracy     IntAcc      ... 4.338
Radial Grid Type                 RadialGrid  ... OptM3 with GC (2021)
Angular Grid (max. ang.)         AngularGrid ... 3 (Lebedev-194)
Angular grid pruning method      GridPruning ... 4 (adaptive)
Weight generation scheme         WeightScheme... Becke
Basis function cutoff            BFCut       ... 1.0000e-11
Integration weight cutoff        WCut        ... 1.0000e-14
Angular grids for H and He will be reduced by one unit
Partially contracted basis set               ... on
Rotationally invariant grid construction     ... off

Total number of grid points                  ...    16290
Total number of batches                      ...      256
Average number of points per batch           ...       63
Average number of grid points per atom       ...     5430
UseSFitting                                  ... on

Time for X-Grid setup             =    0.411 sec


--------------------
CPCM SOLVATION MODEL
--------------------
CPCM parameters:
  Epsilon                                         ...      69.0000
  Refrac                                          ...       1.3400
  Rsolv                                           ...       1.3000
  Surface type                                    ... GAUSSIAN VDW
  Epsilon function type                           ...         CPCM
Radii:
 Radius for Cl used is    3.9684 Bohr (=   2.1000 Ang.)
 Radius for Ca used is    5.2383 Bohr (=   2.7720 Ang.)
Calculating surface                               ...        done! (  0.0s)
GEPOL surface points                              ...          268
GEPOL Volume                                      ...     890.6855
GEPOL Surface-area                                ...     491.1019
Calculating surface distance matrix               ...        done! (  0.0s)
Performing Cholesky decomposition & store         ...        done! (  0.1s)
Overall time for CPCM initialization              ...                 0.1s
--------------
SCF ITERATIONS
--------------
               ***  Starting incremental Fock matrix formation  ***
==>> SHARK/AuxDens: NDens=1 Thresh =     2.500000e-11 TCut=    2.500000e-12 Lmax=2 LmaxAux=4
    -> Making Hermite density - ok     0.001 sec
    -> Making Aux-basis density - (lmax=2)
    -> L=0 0:    0.002 sec done=      3890 ( 99.7%) skipped=        10 
    -> L=1 0:    0.003 sec done=      4930 ( 95.8%) skipped=       218 
    -> L=1 1:    0.003 sec done=      2028 (100.0%) skipped=         0 
    -> L=2 0:    0.072 sec done=      2392 ( 95.8%) skipped=       104 
    -> L=2 1:    0.003 sec done=      1664 (100.0%) skipped=         0 
    -> L=2 2:    0.001 sec done=       468 ( 90.0%) skipped=        52 
    -> Aux basis density formed in    0.1 sec
    -> Solving linear equations - ok (   0.0 sec)
        Auxbasis Hermite Density:
        P|s>                     ...  0.000
        P|p>                     ...  0.000
        P|d>                     ...  0.000
        P|f>                     ...  0.000
        P|g>                     ...  0.000
        Building the Coulomb matrix: 
        J|ss>                          ... done (  0.0 sec) ndone=    34082 nskipped1=      286 nskipped2=      439
        J|ps>                          ... done (  0.0 sec) ndone=    40440 nskipped1=      414 nskipped2=      872
        J|pp>                          ... done (  0.0 sec) ndone=    18387 nskipped1=      110 nskipped2=      142
        J|ds>                          ... done (  0.0 sec) ndone=    13488 nskipped1=      174 nskipped2=     1200
        J|dp>                          ... done (  0.0 sec) ndone=     9546 nskipped1=       40 nskipped2=      470
        J|dd>                          ... done (  0.0 sec) ndone=     2007 nskipped1=       35 nskipped2=       34
        Coulomb matrix built in   0.0 sec

        Total time for Split-RI-J                ...    0.100 sec
          (0) Prelude                            ...    0.000 sec
          (1) Hermite density                    ...    0.000 sec
          (2) Aux basis density                  ...    0.000 sec (inner=  0.0)
          (3) Linear equation solution           ...    0.000 sec
          (4) J-Matrix construction              ...    0.012 sec (inner=  0.0)
        ---------------------------------------------------------

                         ----------------------------
                         !        ITERATION     0   !
                         ----------------------------
   Total Energy        :   -1593.057516871067 Eh
   Energy Change       :   -1593.057516871067 Eh
   MAX-DP              :       2.054097842763
   RMS-DP              :       0.078381143451
   Actual Damping      :       0.7000
   Actual Level Shift  :       0.2500 Eh
   Int. Num. El.       :    61.99982024 (UP=   30.99991012 DN=   30.99991012)
   Exchange            :   -74.82634104
   Correlation         :    -2.96291784

==>> SHARK/AuxDens: NDens=1 Thresh =     2.500000e-11 TCut=    2.500000e-12 Lmax=2 LmaxAux=4
    -> Making Hermite density - ok     0.001 sec
    -> Making Aux-basis density - (lmax=2)
    -> L=0 0:    0.003 sec done=      3864 ( 99.1%) skipped=        36 
    -> L=1 0:    0.064 sec done=      4930 ( 95.8%) skipped=       218 
    -> L=1 1:    0.003 sec done=      2024 ( 99.8%) skipped=         4 
    -> L=2 0:    0.002 sec done=      2392 ( 95.8%) skipped=       104 
    -> L=2 1:    0.003 sec done=      1664 (100.0%) skipped=         0 
    -> L=2 2:    0.001 sec done=       468 ( 90.0%) skipped=        52 
    -> Aux basis density formed in    0.1 sec
    -> Solving linear equations - ok (   0.0 sec)
        Auxbasis Hermite Density:
        P|s>                     ...  0.017
        P|p>                     ...  0.017
        P|d>                     ...  0.017
        P|f>                     ...  0.017
        P|g>                     ...  0.017
        Building the Coulomb matrix: 
        J|ss>                          ... done (  0.0 sec) ndone=    33943 nskipped1=      354 nskipped2=      415
        J|ps>                          ... done (  0.0 sec) ndone=    40194 nskipped1=      536 nskipped2=      724
        J|pp>                          ... done (  0.0 sec) ndone=    18327 nskipped1=      130 nskipped2=      122
        J|ds>                          ... done (  0.0 sec) ndone=    13466 nskipped1=      196 nskipped2=     1176
        J|dp>                          ... done (  0.0 sec) ndone=     9526 nskipped1=       60 nskipped2=      470
        J|dd>                          ... done (  0.0 sec) ndone=     2002 nskipped1=       45 nskipped2=       17
        Coulomb matrix built in   0.0 sec

        Total time for Split-RI-J                ...    0.089 sec
          (0) Prelude                            ...    0.000 sec
          (1) Hermite density                    ...    0.000 sec
          (2) Aux basis density                  ...    0.000 sec (inner=  0.0)
          (3) Linear equation solution           ...    0.000 sec
          (4) J-Matrix construction              ...    0.011 sec (inner=  0.0)
        ---------------------------------------------------------

                         ----------------------------
                         !        ITERATION     1   !
                         ----------------------------
   Total Energy        :   -1594.798962407258 Eh
   Energy Change       :      -1.741445536191 Eh
   MAX-DP              :       1.506158093193
   RMS-DP              :       0.044334923494
   Actual Damping      :       0.7000
   Actual Level Shift  :       0.2500 Eh
   Int. Num. El.       :    61.99225970 (UP=   30.99612985 DN=   30.99612985)
   Exchange            :   -73.20514713
   Correlation         :    -2.88318147

==>> SHARK/AuxDens: NDens=1 Thresh =     2.500000e-11 TCut=    2.500000e-12 Lmax=2 LmaxAux=4
    -> Making Hermite density - ok     0.001 sec
    -> Making Aux-basis density - (lmax=2)
    -> L=0 0:    0.002 sec done=      3834 ( 98.3%) skipped=        66 
    -> L=1 0:    0.004 sec done=      4834 ( 93.9%) skipped=       314 
    -> L=1 1:    0.003 sec done=      2028 (100.0%) skipped=         0 
    -> L=2 0:    0.002 sec done=      2392 ( 95.8%) skipped=       104 
    -> L=2 1:    0.003 sec done=      1664 (100.0%) skipped=         0 
    -> L=2 2:    0.001 sec done=       468 ( 90.0%) skipped=        52 
    -> Aux basis density formed in    0.0 sec
    -> Solving linear equations - ok (   0.0 sec)
        Auxbasis Hermite Density:
        P|s>                     ...  0.017
        P|p>                     ...  0.017
        P|d>                     ...  0.017
        P|f>                     ...  0.017
        P|g>                     ...  0.017
        Building the Coulomb matrix: 
        J|ss>                          ... done (  0.0 sec) ndone=    33902 nskipped1=      358 nskipped2=      413
        J|ps>                          ... done (  0.0 sec) ndone=    39964 nskipped1=      652 nskipped2=      636
        J|pp>                          ... done (  0.0 sec) ndone=    18337 nskipped1=      120 nskipped2=      122
        J|ds>                          ... done (  0.0 sec) ndone=    13458 nskipped1=      204 nskipped2=     1176
        J|dp>                          ... done (  0.0 sec) ndone=     9526 nskipped1=       60 nskipped2=      470
        J|dd>                          ... done (  0.0 sec) ndone=     2003 nskipped1=       50 nskipped2=        0
        Coulomb matrix built in   0.0 sec

        Total time for Split-RI-J                ...    0.029 sec
          (0) Prelude                            ...    0.000 sec
          (1) Hermite density                    ...    0.000 sec
          (2) Aux basis density                  ...    0.000 sec (inner=  0.0)
          (3) Linear equation solution           ...    0.000 sec
          (4) J-Matrix construction              ...    0.013 sec (inner=  0.0)
        ---------------------------------------------------------
                               ***Turning on DIIS***

                         ----------------------------
                         !        ITERATION     2   !
                         ----------------------------
   Total Energy        :   -1595.505952565636 Eh
   Energy Change       :      -0.706990158378 Eh
   MAX-DP              :       1.118753925981
   RMS-DP              :       0.030257600340
   Actual Damping      :       0.7000
   Actual Level Shift  :       0.2500 Eh
   Int. Num. El.       :    61.98673337 (UP=   30.99336669 DN=   30.99336669)
   Exchange            :   -72.85658523
   Correlation         :    -2.85931235
   DIIS-Error          :       0.195045093799

==>> SHARK/AuxDens: NDens=1 Thresh =     2.500000e-11 TCut=    2.500000e-12 Lmax=2 LmaxAux=4
    -> Making Hermite density - ok     0.001 sec
    -> Making Aux-basis density - (lmax=2)
    -> L=0 0:    0.002 sec done=      3730 ( 95.6%) skipped=       170 
    -> L=1 0:    0.004 sec done=      4821 ( 93.6%) skipped=       327 
    -> L=1 1:    0.003 sec done=      2028 (100.0%) skipped=         0 
    -> L=2 0:    0.002 sec done=      2392 ( 95.8%) skipped=       104 
    -> L=2 1:    0.003 sec done=      1664 (100.0%) skipped=         0 
    -> L=2 2:    0.001 sec done=       468 ( 90.0%) skipped=        52 
    -> Aux basis density formed in    0.0 sec
    -> Solving linear equations - ok (   0.0 sec)
        Auxbasis Hermite Density:
        P|s>                     ...  0.017
        P|p>                     ...  0.017
        P|d>                     ...  0.017
        P|f>                     ...  0.017
        P|g>                     ...  0.017
        Building the Coulomb matrix: 
        J|ss>                          ... done (  0.0 sec) ndone=    33771 nskipped1=      425 nskipped2=      393
        J|ps>                          ... done (  0.1 sec) ndone=    39780 nskipped1=      772 nskipped2=      570
        J|pp>                          ... done (  0.0 sec) ndone=    18285 nskipped1=      131 nskipped2=      102
        J|ds>                          ... done (  0.0 sec) ndone=    13452 nskipped1=      210 nskipped2=     1176
        J|dp>                          ... done (  0.0 sec) ndone=     9526 nskipped1=       60 nskipped2=      470
        J|dd>                          ... done (  0.0 sec) ndone=     2002 nskipped1=       51 nskipped2=        0
        Coulomb matrix built in   0.1 sec

        Total time for Split-RI-J                ...    0.098 sec
          (0) Prelude                            ...    0.000 sec
          (1) Hermite density                    ...    0.000 sec
          (2) Aux basis density                  ...    0.000 sec (inner=  0.0)
          (3) Linear equation solution           ...    0.000 sec
          (4) J-Matrix construction              ...    0.082 sec (inner=  0.1)
        ---------------------------------------------------------

                         ----------------------------
                         !        ITERATION     3   !
                         ----------------------------
   Total Energy        :   -1596.024694560105 Eh
   Energy Change       :      -0.518741994469 Eh
   MAX-DP              :       0.829176093655
   RMS-DP              :       0.023555259745
   Actual Damping      :       0.7000
   Actual Level Shift  :       0.2500 Eh
   Int. Num. El.       :    61.98262122 (UP=   30.99131061 DN=   30.99131061)
   Exchange            :   -72.76334363
   Correlation         :    -2.84803664
   DIIS-Error          :       0.195495142626
   DIIS coefficients:
     -0.54135   1.54135

==>> SHARK/AuxDens: NDens=1 Thresh =     2.500000e-11 TCut=    2.500000e-12 Lmax=2 LmaxAux=4
    -> Making Hermite density - ok     0.004 sec
    -> Making Aux-basis density - (lmax=2)
    -> L=0 0:    0.004 sec done=      3826 ( 98.1%) skipped=        74 
    -> L=1 0:    0.006 sec done=      4809 ( 93.4%) skipped=       339 
    -> L=1 1:    0.004 sec done=      2024 ( 99.8%) skipped=         4 
    -> L=2 0:    0.074 sec done=      2392 ( 95.8%) skipped=       104 
    -> L=2 1:    0.004 sec done=      1664 (100.0%) skipped=         0 
    -> L=2 2:    0.002 sec done=       468 ( 90.0%) skipped=        52 
    -> Aux basis density formed in    0.1 sec
    -> Solving linear equations - ok (   0.0 sec)
        Auxbasis Hermite Density:
        P|s>                     ...  0.017
        P|p>                     ...  0.017
        P|d>                     ...  0.017
        P|f>                     ...  0.017
        P|g>                     ...  0.017
        Building the Coulomb matrix: 
        J|ss>                          ... done (  0.0 sec) ndone=    33649 nskipped1=      521 nskipped2=      389
        J|ps>                          ... done (  0.0 sec) ndone=    39572 nskipped1=      986 nskipped2=      540
        J|pp>                          ... done (  0.0 sec) ndone=    18172 nskipped1=      224 nskipped2=      102
        J|ds>                          ... done (  0.0 sec) ndone=    13436 nskipped1=      236 nskipped2=     1166
        J|dp>                          ... done (  0.0 sec) ndone=     9526 nskipped1=       60 nskipped2=      470
        J|dd>                          ... done (  0.0 sec) ndone=     2001 nskipped1=       52 nskipped2=        0
        Coulomb matrix built in   0.0 sec

        Total time for Split-RI-J                ...    0.114 sec
          (0) Prelude                            ...    0.000 sec
          (1) Hermite density                    ...    0.000 sec
          (2) Aux basis density                  ...    0.000 sec (inner=  0.0)
          (3) Linear equation solution           ...    0.000 sec
          (4) J-Matrix construction              ...    0.016 sec (inner=  0.0)
        ---------------------------------------------------------

                         ----------------------------
                         !        ITERATION     4   !
                         ----------------------------
   Total Energy        :   -1596.395218381466 Eh
   Energy Change       :      -0.370523821361 Eh
   MAX-DP              :       0.608667614467
   RMS-DP              :       0.019456254800
   Actual Damping      :       0.7000
   Actual Level Shift  :       0.2500 Eh
   Int. Num. El.       :    61.97957244 (UP=   30.98978622 DN=   30.98978622)
   Exchange            :   -72.76084020
   Correlation         :    -2.84272428
   DIIS-Error          :       0.150539157860
   DIIS coefficients:
     -0.08614  -1.30572   2.39187

==>> SHARK/AuxDens: NDens=1 Thresh =     2.500000e-11 TCut=    2.500000e-12 Lmax=2 LmaxAux=4
    -> Making Hermite density - ok     0.001 sec
    -> Making Aux-basis density - (lmax=2)
    -> L=0 0:    0.002 sec done=      3826 ( 98.1%) skipped=        74 
    -> L=1 0:    0.003 sec done=      4789 ( 93.0%) skipped=       359 
    -> L=1 1:    0.003 sec done=      2014 ( 99.3%) skipped=        14 
    -> L=2 0:    0.002 sec done=      2392 ( 95.8%) skipped=       104 
    -> L=2 1:    0.002 sec done=      1664 (100.0%) skipped=         0 
    -> L=2 2:    0.001 sec done=       468 ( 90.0%) skipped=        52 
    -> Aux basis density formed in    0.0 sec
    -> Solving linear equations - ok (   0.0 sec)
        Auxbasis Hermite Density:
        P|s>                     ...  0.017
        P|p>                     ...  0.017
        P|d>                     ...  0.017
        P|f>                     ...  0.017
        P|g>                     ...  0.017
        Building the Coulomb matrix: 
        J|ss>                          ... done (  0.0 sec) ndone=    33615 nskipped1=      533 nskipped2=      389
        J|ps>                          ... done (  0.0 sec) ndone=    39440 nskipped1=     1056 nskipped2=      512
        J|pp>                          ... done (  0.1 sec) ndone=    18137 nskipped1=      227 nskipped2=      102
        J|ds>                          ... done (  0.0 sec) ndone=    13387 nskipped1=      272 nskipped2=     1146
        J|dp>                          ... done (  0.0 sec) ndone=     9516 nskipped1=       65 nskipped2=      470
        J|dd>                          ... done (  0.0 sec) ndone=     2001 nskipped1=       52 nskipped2=        0
        Coulomb matrix built in   0.1 sec

        Total time for Split-RI-J                ...    0.084 sec
          (0) Prelude                            ...    0.000 sec
          (1) Hermite density                    ...    0.000 sec
          (2) Aux basis density                  ...    0.000 sec (inner=  0.0)
          (3) Linear equation solution           ...    0.000 sec
          (4) J-Matrix construction              ...    0.070 sec (inner=  0.1)
        ---------------------------------------------------------

                         ----------------------------
                         !        ITERATION     5   !
                         ----------------------------
   Total Energy        :   -1596.656720265975 Eh
   Energy Change       :      -0.261501884508 Eh
   MAX-DP              :       0.444936612509
   RMS-DP              :       0.015499950392
   Actual Damping      :       0.7000
   Actual Level Shift  :       0.2500 Eh
   Int. Num. El.       :    61.97733813 (UP=   30.98866906 DN=   30.98866906)
   Exchange            :   -72.78583951
   Correlation         :    -2.84031923
   DIIS-Error          :       0.105274391882
   DIIS coefficients:
     -0.01520  -0.54428  -0.65551   2.21500

==>> SHARK/AuxDens: NDens=1 Thresh =     2.500000e-11 TCut=    2.500000e-12 Lmax=2 LmaxAux=4
    -> Making Hermite density - ok     0.001 sec
    -> Making Aux-basis density - (lmax=2)
    -> L=0 0:    0.002 sec done=      3826 ( 98.1%) skipped=        74 
    -> L=1 0:    0.074 sec done=      4755 ( 92.4%) skipped=       393 
    -> L=1 1:    0.003 sec done=      2006 ( 98.9%) skipped=        22 
    -> L=2 0:    0.002 sec done=      2392 ( 95.8%) skipped=       104 
    -> L=2 1:    0.003 sec done=      1664 (100.0%) skipped=         0 
    -> L=2 2:    0.001 sec done=       468 ( 90.0%) skipped=        52 
    -> Aux basis density formed in    0.1 sec
    -> Solving linear equations - ok (   0.0 sec)
        Auxbasis Hermite Density:
        P|s>                     ...  0.017
        P|p>                     ...  0.017
        P|d>                     ...  0.017
        P|f>                     ...  0.017
        P|g>                     ...  0.017
        Building the Coulomb matrix: 
        J|ss>                          ... done (  0.0 sec) ndone=    33497 nskipped1=      609 nskipped2=      387
        J|ps>                          ... done (  0.0 sec) ndone=    39126 nskipped1=     1260 nskipped2=      488
        J|pp>                          ... done (  0.0 sec) ndone=    18026 nskipped1=      268 nskipped2=      100
        J|ds>                          ... done (  0.0 sec) ndone=    13330 nskipped1=      265 nskipped2=     1138
        J|dp>                          ... done (  0.0 sec) ndone=     9484 nskipped1=       85 nskipped2=      462
        J|dd>                          ... done (  0.0 sec) ndone=     2001 nskipped1=       52 nskipped2=        0
        Coulomb matrix built in   0.0 sec

        Total time for Split-RI-J                ...    0.097 sec
          (0) Prelude                            ...    0.000 sec
          (1) Hermite density                    ...    0.000 sec
          (2) Aux basis density                  ...    0.000 sec (inner=  0.0)
          (3) Linear equation solution           ...    0.000 sec
          (4) J-Matrix construction              ...    0.011 sec (inner=  0.0)
        ---------------------------------------------------------

                         ----------------------------
                         !        ITERATION     6   !
                         ----------------------------
   Total Energy        :   -1596.840681368476 Eh
   Energy Change       :      -0.183961102501 Eh
   MAX-DP              :       1.133312978597
   RMS-DP              :       0.039727502646
   Actual Damping      :       0.0000
   Actual Level Shift  :       0.2500 Eh
   Int. Num. El.       :    61.97570804 (UP=   30.98785402 DN=   30.98785402)
   Exchange            :   -72.80804379
   Correlation         :    -2.83892222
   DIIS-Error          :       0.072015128806
   DIIS coefficients:
     -0.03161  -0.19867  -0.31274  -0.31632   1.85934

==>> SHARK/AuxDens: NDens=1 Thresh =     2.500000e-11 TCut=    2.500000e-12 Lmax=2 LmaxAux=4
    -> Making Hermite density - ok     0.001 sec
    -> Making Aux-basis density - (lmax=2)
    -> L=0 0:    0.002 sec done=      3844 ( 98.6%) skipped=        56 
    -> L=1 0:    0.003 sec done=      4820 ( 93.6%) skipped=       328 
    -> L=1 1:    0.003 sec done=      2024 ( 99.8%) skipped=         4 
    -> L=2 0:    0.002 sec done=      2392 ( 95.8%) skipped=       104 
    -> L=2 1:    0.002 sec done=      1664 (100.0%) skipped=         0 
    -> L=2 2:    0.001 sec done=       468 ( 90.0%) skipped=        52 
    -> Aux basis density formed in    0.0 sec
    -> Solving linear equations - ok (   0.0 sec)
        Auxbasis Hermite Density:
        P|s>                     ...  0.017
        P|p>                     ...  0.017
        P|d>                     ...  0.017
        P|f>                     ...  0.017
        P|g>                     ...  0.017
        Building the Coulomb matrix: 
        J|ss>                          ... done (  0.0 sec) ndone=    33503 nskipped1=      503 nskipped2=      337
        J|ps>                          ... done (  0.0 sec) ndone=    39530 nskipped1=      946 nskipped2=      530
        J|pp>                          ... done (  0.0 sec) ndone=    18104 nskipped1=      184 nskipped2=       98
        J|ds>                          ... done (  0.0 sec) ndone=    13278 nskipped1=      246 nskipped2=     1158
        J|dp>                          ... done (  0.0 sec) ndone=     9442 nskipped1=       72 nskipped2=      470
        J|dd>                          ... done (  0.0 sec) ndone=     2002 nskipped1=       51 nskipped2=        0
        Coulomb matrix built in   0.0 sec

        Total time for Split-RI-J                ...    0.025 sec
          (0) Prelude                            ...    0.000 sec
          (1) Hermite density                    ...    0.000 sec
          (2) Aux basis density                  ...    0.000 sec (inner=  0.0)
          (3) Linear equation solution           ...    0.000 sec
          (4) J-Matrix construction              ...    0.010 sec (inner=  0.0)
        ---------------------------------------------------------

                         ----------------------------
                         !        ITERATION     7   !
                         ----------------------------
   Total Energy        :   -1597.273216914516 Eh
   Energy Change       :      -0.432535546040 Eh
   MAX-DP              :       0.095267519059
   RMS-DP              :       0.002487000089
   Actual Damping      :       0.0000
   Actual Level Shift  :       0.2500 Eh
   Int. Num. El.       :    61.97175592 (UP=   30.98587796 DN=   30.98587796)
   Exchange            :   -72.86052502
   Correlation         :    -2.83559962
   DIIS-Error          :       0.004079020485
   DIIS coefficients:
      0.94639  -0.03563   0.02635   0.03592   0.02697

==>> SHARK/AuxDens: NDens=1 Thresh =     2.500000e-11 TCut=    2.500000e-12 Lmax=2 LmaxAux=4
    -> Making Hermite density - ok     0.001 sec
    -> Making Aux-basis density - (lmax=2)
    -> L=0 0:    0.002 sec done=      3748 ( 96.1%) skipped=       152 
    -> L=1 0:    0.004 sec done=      4676 ( 90.8%) skipped=       472 
    -> L=1 1:    0.003 sec done=      1954 ( 96.4%) skipped=        74 
    -> L=2 0:    0.002 sec done=      2320 ( 92.9%) skipped=       176 
    -> L=2 1:    0.003 sec done=      1662 ( 99.9%) skipped=         2 
    -> L=2 2:    0.001 sec done=       468 ( 90.0%) skipped=        52 
    -> Aux basis density formed in    0.0 sec
    -> Solving linear equations - ok (   0.0 sec)
        Auxbasis Hermite Density:
        P|s>                     ...  0.017
        P|p>                     ...  0.017
        P|d>                     ...  0.017
        P|f>                     ...  0.017
        P|g>                     ...  0.017
        Building the Coulomb matrix: 
        J|ss>                          ... done (  0.0 sec) ndone=    33338 nskipped1=      766 nskipped2=      382
        J|ps>                          ... done (  0.0 sec) ndone=    38772 nskipped1=     1640 nskipped2=      348
        J|pp>                          ... done (  0.0 sec) ndone=    17844 nskipped1=      424 nskipped2=      100
        J|ds>                          ... done (  0.0 sec) ndone=    13414 nskipped1=      254 nskipped2=     1148
        J|dp>                          ... done (  0.0 sec) ndone=     9526 nskipped1=       60 nskipped2=      470
        J|dd>                          ... done (  0.0 sec) ndone=     2001 nskipped1=       52 nskipped2=        0
        Coulomb matrix built in   0.0 sec

        Total time for Split-RI-J                ...    0.097 sec
          (0) Prelude                            ...    0.000 sec
          (1) Hermite density                    ...    0.000 sec
          (2) Aux basis density                  ...    0.000 sec (inner=  0.0)
          (3) Linear equation solution           ...    0.000 sec
          (4) J-Matrix construction              ...    0.011 sec (inner=  0.0)
        ---------------------------------------------------------
                      *** Initiating the SOSCF procedure ***
                           *** Shutting down DIIS ***
                      *** Re-Reading the Fockian *** 
                      *** Removing any level shift *** 

                         ----------------------------
                         !        ITERATION     8   !
                         ----------------------------
   Total Energy        :   -1597.273483094871 Eh
   Energy Change       :      -0.000266180355 Eh
   MAX-DP              :       0.077349206117
   RMS-DP              :       0.002074532418
   Orbital gradient    :       0.003207215204
   Orbital Rotation    :       0.003207215204
   Actual Damping      :       0.0000
   Int. Num. El.       :    61.97164873 (UP=   30.98582437 DN=   30.98582437)
   Exchange            :   -72.85341388
   Correlation         :    -2.83525605

               *** Restarting incremental Fock matrix formation ***
==>> SHARK/AuxDens: NDens=1 Thresh =     2.500000e-11 TCut=    2.500000e-12 Lmax=2 LmaxAux=4
    -> Making Hermite density - ok     0.002 sec
    -> Making Aux-basis density - (lmax=2)
    -> L=0 0:    0.002 sec done=      3893 ( 99.8%) skipped=         7 
    -> L=1 0:    0.004 sec done=      4936 ( 95.9%) skipped=       212 
    -> L=1 1:    0.063 sec done=      2028 (100.0%) skipped=         0 
    -> L=2 0:    0.002 sec done=      2392 ( 95.8%) skipped=       104 
    -> L=2 1:    0.003 sec done=      1664 (100.0%) skipped=         0 
    -> L=2 2:    0.001 sec done=       468 ( 90.0%) skipped=        52 
    -> Aux basis density formed in    0.1 sec
    -> Solving linear equations - ok (   0.0 sec)
        Auxbasis Hermite Density:
        P|s>                     ...  0.017
        P|p>                     ...  0.017
        P|d>                     ...  0.017
        P|f>                     ...  0.017
        P|g>                     ...  0.017
        Building the Coulomb matrix: 
        J|ss>                          ... done (  0.0 sec) ndone=    34004 nskipped1=      319 nskipped2=      439
        J|ps>                          ... done (  0.0 sec) ndone=    40258 nskipped1=      508 nskipped2=      850
        J|pp>                          ... done (  0.0 sec) ndone=    18367 nskipped1=      120 nskipped2=      142
        J|ds>                          ... done (  0.0 sec) ndone=    13488 nskipped1=      174 nskipped2=     1200
        J|dp>                          ... done (  0.0 sec) ndone=     9536 nskipped1=       50 nskipped2=      470
        J|dd>                          ... done (  0.0 sec) ndone=     2010 nskipped1=       33 nskipped2=       33
        Coulomb matrix built in   0.0 sec

        Total time for Split-RI-J                ...    0.096 sec
          (0) Prelude                            ...    0.000 sec
          (1) Hermite density                    ...    0.000 sec
          (2) Aux basis density                  ...    0.000 sec (inner=  0.0)
          (3) Linear equation solution           ...    0.000 sec
          (4) J-Matrix construction              ...    0.017 sec (inner=  0.0)
        ---------------------------------------------------------

                         ----------------------------
                         !        ITERATION     9   !
                         ----------------------------
   Total Energy        :   -1597.272462562432 Eh
   Energy Change       :       0.001020532439 Eh
   MAX-DP              :       0.101136037645
   RMS-DP              :       0.002679060755
   Orbital gradient    :       0.001889499621
   Orbital Rotation    :       0.008940811355
   Actual Damping      :       0.0000
   Int. Num. El.       :    61.97157882 (UP=   30.98578941 DN=   30.98578941)
   Exchange            :   -72.85470087
   Correlation         :    -2.83530815

==>> SHARK/AuxDens: NDens=1 Thresh =     2.500000e-11 TCut=    2.500000e-12 Lmax=2 LmaxAux=4
    -> Making Hermite density - ok     0.072 sec
    -> Making Aux-basis density - (lmax=2)
    -> L=0 0:    0.002 sec done=      3748 ( 96.1%) skipped=       152 
    -> L=1 0:    0.003 sec done=      4710 ( 91.5%) skipped=       438 
    -> L=1 1:    0.003 sec done=      1916 ( 94.5%) skipped=       112 
    -> L=2 0:    0.002 sec done=      2312 ( 92.6%) skipped=       184 
    -> L=2 1:    0.003 sec done=      1664 (100.0%) skipped=         0 
    -> L=2 2:    0.001 sec done=       468 ( 90.0%) skipped=        52 
    -> Aux basis density formed in    0.0 sec
    -> Solving linear equations - ok (   0.0 sec)
        Auxbasis Hermite Density:
        P|s>                     ...  0.017
        P|p>                     ...  0.017
        P|d>                     ...  0.017
        P|f>                     ...  0.017
        P|g>                     ...  0.017
        Building the Coulomb matrix: 
        J|ss>                          ... done (  0.0 sec) ndone=    33288 nskipped1=      765 nskipped2=      338
        J|ps>                          ... done (  0.0 sec) ndone=    38900 nskipped1=     1504 nskipped2=      254
        J|pp>                          ... done (  0.0 sec) ndone=    17795 nskipped1=      400 nskipped2=       64
        J|ds>                          ... done (  0.0 sec) ndone=    13442 nskipped1=      228 nskipped2=     1158
        J|dp>                          ... done (  0.0 sec) ndone=     9526 nskipped1=       60 nskipped2=      470
        J|dd>                          ... done (  0.0 sec) ndone=     2001 nskipped1=       52 nskipped2=        0
        Coulomb matrix built in   0.0 sec

        Total time for Split-RI-J                ...    0.098 sec
          (0) Prelude                            ...    0.000 sec
          (1) Hermite density                    ...    0.000 sec
          (2) Aux basis density                  ...    0.000 sec (inner=  0.0)
          (3) Linear equation solution           ...    0.000 sec
          (4) J-Matrix construction              ...    0.010 sec (inner=  0.0)
        ---------------------------------------------------------

                         ----------------------------
                         !        ITERATION    10   !
                         ----------------------------
   Total Energy        :   -1597.272509460225 Eh
   Energy Change       :      -0.000046897793 Eh
   MAX-DP              :       0.025253522137
   RMS-DP              :       0.000680999445
   Orbital gradient    :       0.000357099594
   Orbital Rotation    :       0.002213156299
   Actual Damping      :       0.0000
   Int. Num. El.       :    61.97147963 (UP=   30.98573982 DN=   30.98573982)
   Exchange            :   -72.85380191
   Correlation         :    -2.83526892

==>> SHARK/AuxDens: NDens=1 Thresh =     2.500000e-11 TCut=    2.500000e-12 Lmax=2 LmaxAux=4
    -> Making Hermite density - ok     0.001 sec
    -> Making Aux-basis density - (lmax=2)
    -> L=0 0:    0.001 sec done=      3740 ( 95.9%) skipped=       160 
    -> L=1 0:    0.003 sec done=      4616 ( 89.7%) skipped=       532 
    -> L=1 1:    0.002 sec done=      1822 ( 89.8%) skipped=       206 
    -> L=2 0:    0.062 sec done=      2290 ( 91.7%) skipped=       206 
    -> L=2 1:    0.002 sec done=      1642 ( 98.7%) skipped=        22 
    -> L=2 2:    0.001 sec done=       468 ( 90.0%) skipped=        52 
    -> Aux basis density formed in    0.1 sec
    -> Solving linear equations - ok (   0.0 sec)
        Auxbasis Hermite Density:
        P|s>                     ...  0.017
        P|p>                     ...  0.017
        P|d>                     ...  0.017
        P|f>                     ...  0.017
        P|g>                     ...  0.017
        Building the Coulomb matrix: 
        J|ss>                          ... done (  0.0 sec) ndone=    32957 nskipped1=      913 nskipped2=      290
        J|ps>                          ... done (  0.0 sec) ndone=    38168 nskipped1=     1978 nskipped2=      210
        J|pp>                          ... done (  0.0 sec) ndone=    17555 nskipped1=      569 nskipped2=       62
        J|ds>                          ... done (  0.0 sec) ndone=    13319 nskipped1=      275 nskipped2=     1130
        J|dp>                          ... done (  0.0 sec) ndone=     9542 nskipped1=       52 nskipped2=      470
        J|dd>                          ... done (  0.0 sec) ndone=     2001 nskipped1=       52 nskipped2=        0
        Coulomb matrix built in   0.0 sec

        Total time for Split-RI-J                ...    0.084 sec
          (0) Prelude                            ...    0.000 sec
          (1) Hermite density                    ...    0.000 sec
          (2) Aux basis density                  ...    0.000 sec (inner=  0.0)
          (3) Linear equation solution           ...    0.000 sec
          (4) J-Matrix construction              ...    0.010 sec (inner=  0.0)
        ---------------------------------------------------------

                         ----------------------------
                         !        ITERATION    11   !
                         ----------------------------
   Total Energy        :   -1597.272511469086 Eh
   Energy Change       :      -0.000002008861 Eh
   MAX-DP              :       0.001308960097
   RMS-DP              :       0.000058954511
   Orbital gradient    :       0.000097586101
   Orbital Rotation    :       0.000555904345
   Actual Damping      :       0.0000
   Int. Num. El.       :    61.97145725 (UP=   30.98572863 DN=   30.98572863)
   Exchange            :   -72.85459648
   Correlation         :    -2.83529793

==>> SHARK/AuxDens: NDens=1 Thresh =     2.500000e-11 TCut=    2.500000e-12 Lmax=2 LmaxAux=4
    -> Making Hermite density - ok     0.001 sec
    -> Making Aux-basis density - (lmax=2)
    -> L=0 0:    0.002 sec done=      3444 ( 88.3%) skipped=       456 
    -> L=1 0:    0.003 sec done=      4491 ( 87.2%) skipped=       657 
    -> L=1 1:    0.002 sec done=      1810 ( 89.3%) skipped=       218 
    -> L=2 0:    0.002 sec done=      2274 ( 91.1%) skipped=       222 
    -> L=2 1:    0.063 sec done=      1646 ( 98.9%) skipped=        18 
    -> L=2 2:    0.001 sec done=       468 ( 90.0%) skipped=        52 
    -> Aux basis density formed in    0.1 sec
    -> Solving linear equations - ok (   0.0 sec)
        Auxbasis Hermite Density:
        P|s>                     ...  0.017
        P|p>                     ...  0.017
        P|d>                     ...  0.017
        P|f>                     ...  0.017
        P|g>                     ...  0.017
        Building the Coulomb matrix: 
        J|ss>                          ... done (  0.0 sec) ndone=    32769 nskipped1=     1109 nskipped2=      328
        J|ps>                          ... done (  0.0 sec) ndone=    37772 nskipped1=     2304 nskipped2=      194
        J|pp>                          ... done (  0.0 sec) ndone=    17220 nskipped1=      744 nskipped2=       56
        J|ds>                          ... done (  0.0 sec) ndone=    13080 nskipped1=      362 nskipped2=     1102
        J|dp>                          ... done (  0.0 sec) ndone=     9546 nskipped1=       52 nskipped2=      470
        J|dd>                          ... done (  0.0 sec) ndone=     2001 nskipped1=       52 nskipped2=        0
        Coulomb matrix built in   0.0 sec

        Total time for Split-RI-J                ...    0.091 sec
          (0) Prelude                            ...    0.000 sec
          (1) Hermite density                    ...    0.000 sec
          (2) Aux basis density                  ...    0.000 sec (inner=  0.0)
          (3) Linear equation solution           ...    0.000 sec
          (4) J-Matrix construction              ...    0.017 sec (inner=  0.0)
        ---------------------------------------------------------

                         ----------------------------
                         !        ITERATION    12   !
                         ----------------------------
   Total Energy        :   -1597.272511753273 Eh
   Energy Change       :      -0.000000284187 Eh
   MAX-DP              :       0.002150565147
   RMS-DP              :       0.000065709000
   Orbital gradient    :       0.000051184986
   Orbital Rotation    :       0.000490300034
   Actual Damping      :       0.0000
   Int. Num. El.       :    61.97145544 (UP=   30.98572772 DN=   30.98572772)
   Exchange            :   -72.85394809
   Correlation         :    -2.83527434

==>> SHARK/AuxDens: NDens=1 Thresh =     2.500000e-11 TCut=    2.500000e-12 Lmax=2 LmaxAux=4
    -> Making Hermite density - ok     0.001 sec
    -> Making Aux-basis density - (lmax=2)
    -> L=0 0:    0.002 sec done=      3598 ( 92.3%) skipped=       302 
    -> L=1 0:    0.003 sec done=      4425 ( 86.0%) skipped=       723 
    -> L=1 1:    0.002 sec done=      1798 ( 88.7%) skipped=       230 
    -> L=2 0:    0.002 sec done=      2260 ( 90.5%) skipped=       236 
    -> L=2 1:    0.003 sec done=      1628 ( 97.8%) skipped=        36 
    -> L=2 2:    0.001 sec done=       468 ( 90.0%) skipped=        52 
    -> Aux basis density formed in    0.0 sec
    -> Solving linear equations - ok (   0.0 sec)
        Auxbasis Hermite Density:
        P|s>                     ...  0.017
        P|p>                     ...  0.017
        P|d>                     ...  0.017
        P|f>                     ...  0.017
        P|g>                     ...  0.017
        Building the Coulomb matrix: 
        J|ss>                          ... done (  0.0 sec) ndone=    32692 nskipped1=     1132 nskipped2=      284
        J|ps>                          ... done (  0.0 sec) ndone=    37666 nskipped1=     2434 nskipped2=      194
        J|pp>                          ... done (  0.0 sec) ndone=    17169 nskipped1=      839 nskipped2=       62
        J|ds>                          ... done (  0.0 sec) ndone=    12972 nskipped1=      438 nskipped2=     1122
        J|dp>                          ... done (  0.0 sec) ndone=     9478 nskipped1=       60 nskipped2=      470
        J|dd>                          ... done (  0.0 sec) ndone=     2001 nskipped1=       52 nskipped2=        0
        Coulomb matrix built in   0.0 sec

        Total time for Split-RI-J                ...    0.025 sec
          (0) Prelude                            ...    0.000 sec
          (1) Hermite density                    ...    0.000 sec
          (2) Aux basis density                  ...    0.000 sec (inner=  0.0)
          (3) Linear equation solution           ...    0.000 sec
          (4) J-Matrix construction              ...    0.010 sec (inner=  0.0)
        ---------------------------------------------------------

                         ----------------------------
                         !        ITERATION    13   !
                         ----------------------------
   Total Energy        :   -1597.272511884000 Eh
   Energy Change       :      -0.000000130727 Eh
   MAX-DP              :       0.001694483006
   RMS-DP              :       0.000075102012
   Orbital gradient    :       0.000030299015
   Orbital Rotation    :       0.000967247767
   Actual Damping      :       0.0000
   Int. Num. El.       :    61.97145751 (UP=   30.98572875 DN=   30.98572875)
   Exchange            :   -72.85405113
   Correlation         :    -2.83527749

==>> SHARK/AuxDens: NDens=1 Thresh =     2.500000e-11 TCut=    2.500000e-12 Lmax=2 LmaxAux=4
    -> Making Hermite density - ok     0.001 sec
    -> Making Aux-basis density - (lmax=2)
    -> L=0 0:    0.072 sec done=      3552 ( 91.1%) skipped=       348 
    -> L=1 0:    0.005 sec done=      4485 ( 87.1%) skipped=       663 
    -> L=1 1:    0.003 sec done=      1798 ( 88.7%) skipped=       230 
    -> L=2 0:    0.002 sec done=      2262 ( 90.6%) skipped=       234 
    -> L=2 1:    0.003 sec done=      1660 ( 99.8%) skipped=         4 
    -> L=2 2:    0.001 sec done=       468 ( 90.0%) skipped=        52 
    -> Aux basis density formed in    0.1 sec
    -> Solving linear equations - ok (   0.0 sec)
        Auxbasis Hermite Density:
        P|s>                     ...  0.017
        P|p>                     ...  0.017
        P|d>                     ...  0.017
        P|f>                     ...  0.017
        P|g>                     ...  0.017
        Building the Coulomb matrix: 
        J|ss>                          ... done (  0.0 sec) ndone=    32681 nskipped1=     1110 nskipped2=      284
        J|ps>                          ... done (  0.0 sec) ndone=    37644 nskipped1=     2386 nskipped2=      186
        J|pp>                          ... done (  0.0 sec) ndone=    17095 nskipped1=      856 nskipped2=       54
        J|ds>                          ... done (  0.0 sec) ndone=    13050 nskipped1=      380 nskipped2=     1126
        J|dp>                          ... done (  0.1 sec) ndone=     9476 nskipped1=       62 nskipped2=      470
        J|dd>                          ... done (  0.0 sec) ndone=     2001 nskipped1=       52 nskipped2=        0
        Coulomb matrix built in   0.1 sec

        Total time for Split-RI-J                ...    0.173 sec
          (0) Prelude                            ...    0.000 sec
          (1) Hermite density                    ...    0.000 sec
          (2) Aux basis density                  ...    0.000 sec (inner=  0.0)
          (3) Linear equation solution           ...    0.000 sec
          (4) J-Matrix construction              ...    0.084 sec (inner=  0.1)
        ---------------------------------------------------------

                         ----------------------------
                         !        ITERATION    14   !
                         ----------------------------
   Total Energy        :   -1597.272511944468 Eh
   Energy Change       :      -0.000000060468 Eh
   MAX-DP              :       0.000310696912
   RMS-DP              :       0.000018447823
   Orbital gradient    :       0.000023259949
   Orbital Rotation    :       0.000208535540
   Actual Damping      :       0.0000
   Int. Num. El.       :    61.97145917 (UP=   30.98572959 DN=   30.98572959)
   Exchange            :   -72.85418207
   Correlation         :    -2.83528370

==>> SHARK/AuxDens: NDens=1 Thresh =     2.500000e-11 TCut=    2.500000e-12 Lmax=2 LmaxAux=4
    -> Making Hermite density - ok     0.001 sec
    -> Making Aux-basis density - (lmax=2)
    -> L=0 0:    0.002 sec done=      3440 ( 88.2%) skipped=       460 
    -> L=1 0:    0.003 sec done=      4459 ( 86.6%) skipped=       689 
    -> L=1 1:    0.003 sec done=      1728 ( 85.2%) skipped=       300 
    -> L=2 0:    0.002 sec done=      2200 ( 88.1%) skipped=       296 
    -> L=2 1:    0.073 sec done=      1603 ( 96.3%) skipped=        61 
    -> L=2 2:    0.001 sec done=       468 ( 90.0%) skipped=        52 
    -> Aux basis density formed in    0.1 sec
    -> Solving linear equations - ok (   0.0 sec)
        Auxbasis Hermite Density:
        P|s>                     ...  0.017
        P|p>                     ...  0.017
        P|d>                     ...  0.017
        P|f>                     ...  0.017
        P|g>                     ...  0.017
        Building the Coulomb matrix: 
        J|ss>                          ... done (  0.0 sec) ndone=    32105 nskipped1=     1392 nskipped2=      264
        J|ps>                          ... done (  0.0 sec) ndone=    37260 nskipped1=     2570 nskipped2=      160
        J|pp>                          ... done (  0.0 sec) ndone=    17029 nskipped1=     1002 nskipped2=       62
        J|ds>                          ... done (  0.0 sec) ndone=    12756 nskipped1=      632 nskipped2=     1126
        J|dp>                          ... done (  0.0 sec) ndone=     9436 nskipped1=       78 nskipped2=      470
        J|dd>                          ... done (  0.0 sec) ndone=     2001 nskipped1=       52 nskipped2=        0
        Coulomb matrix built in   0.0 sec

        Total time for Split-RI-J                ...    0.096 sec
          (0) Prelude                            ...    0.000 sec
          (1) Hermite density                    ...    0.000 sec
          (2) Aux basis density                  ...    0.000 sec (inner=  0.0)
          (3) Linear equation solution           ...    0.000 sec
          (4) J-Matrix construction              ...    0.010 sec (inner=  0.0)
        ---------------------------------------------------------

                         ----------------------------
                         !        ITERATION    15   !
                         ----------------------------
   Total Energy        :   -1597.272511972328 Eh
   Energy Change       :      -0.000000027860 Eh
   MAX-DP              :       0.012854882439
   RMS-DP              :       0.000704275381
   Orbital gradient    :       0.000022482062
   Orbital Rotation    :       0.009041599842
   Actual Damping      :       0.0000
   Int. Num. El.       :    61.97145877 (UP=   30.98572939 DN=   30.98572939)
   Exchange            :   -72.85417102
   Correlation         :    -2.83528184

==>> SHARK/AuxDens: NDens=1 Thresh =     2.500000e-11 TCut=    2.500000e-12 Lmax=2 LmaxAux=4
    -> Making Hermite density - ok     0.001 sec
    -> Making Aux-basis density - (lmax=2)
    -> L=0 0:    0.003 sec done=      3730 ( 95.6%) skipped=       170 
    -> L=1 0:    0.005 sec done=      4696 ( 91.2%) skipped=       452 
    -> L=1 1:    0.003 sec done=      1876 ( 92.5%) skipped=       152 
    -> L=2 0:    0.072 sec done=      2300 ( 92.1%) skipped=       196 
    -> L=2 1:    0.003 sec done=      1664 (100.0%) skipped=         0 
    -> L=2 2:    0.001 sec done=       468 ( 90.0%) skipped=        52 
    -> Aux basis density formed in    0.1 sec
    -> Solving linear equations - ok (   0.0 sec)
        Auxbasis Hermite Density:
        P|s>                     ...  0.017
        P|p>                     ...  0.017
        P|d>                     ...  0.017
        P|f>                     ...  0.017
        P|g>                     ...  0.017
        Building the Coulomb matrix: 
        J|ss>                          ... done (  0.0 sec) ndone=    33377 nskipped1=      686 nskipped2=      348
        J|ps>                          ... done (  0.0 sec) ndone=    38682 nskipped1=     1746 nskipped2=      216
        J|pp>                          ... done (  0.0 sec) ndone=    17721 nskipped1=      506 nskipped2=       64
        J|ds>                          ... done (  0.0 sec) ndone=    13526 nskipped1=      140 nskipped2=     1144
        J|dp>                          ... done (  0.0 sec) ndone=     9622 nskipped1=        0 nskipped2=      470
[...]
MULLIKEN REDUCED ORBITAL CHARGES
--------------------------------
  0 Cls       :     5.999679  s :     5.999679
      pz      :     3.999844  p :    11.997460
      px      :     3.998926
      py      :     3.998690
      dz2     :     0.000002  d :     0.000013
      dxz     :     0.000001
      dyz     :     0.000001
      dx2y2   :     0.000000
      dxy     :     0.000008
  1 Cls       :     5.999679  s :     5.999679
      pz      :     3.999824  p :    11.997466
      px      :     3.998968
      py      :     3.998674
      dz2     :     0.000002  d :     0.000013
      dxz     :     0.000001
      dyz     :     0.000001
      dx2y2   :     0.000001
      dxy     :     0.000008
  2 Cas       :     8.004429  s :     8.004429
      pz      :     5.185129  p :    15.579847
      px      :     5.193881
      py      :     5.200837
      dz2     :     0.635947  d :     2.421414
      dxz     :     0.304123
      dyz     :     0.452920
      dx2y2   :     0.754327
      dxy     :     0.274097

------------------------
MULLIKEN OVERLAP CHARGES
------------------------



                     *******************************
                     * LOEWDIN POPULATION ANALYSIS *
                     *******************************

----------------------
LOEWDIN ATOMIC CHARGES
----------------------
   0 Cl:   -0.998622
   1 Cl:   -0.998626
   2 Ca:   -6.002753

-------------------------------
LOEWDIN REDUCED ORBITAL CHARGES
-------------------------------
  0 Cls       :     6.000250  s :     6.000250
      pz      :     3.999897  p :    11.998353
      px      :     3.999304
      py      :     3.999153
      dz2     :     0.000003  d :     0.000018
      dxz     :     0.000001
      dyz     :     0.000002
      dx2y2   :     0.000000
      dxy     :     0.000011
  1 Cls       :     6.000249  s :     6.000249
      pz      :     3.999882  p :    11.998358
      px      :     3.999330
      py      :     3.999146
      dz2     :     0.000003  d :     0.000018
      dxz     :     0.000001
      dyz     :     0.000002
      dx2y2   :     0.000001
      dxy     :     0.000011
  2 Cas       :     8.001404  s :     8.001404
      pz      :     5.185130  p :    15.579871
      px      :     5.193891
      py      :     5.200850
      dz2     :     0.635956  d :     2.421477
      dxz     :     0.304129
      dyz     :     0.452927
      dx2y2   :     0.754328
      dxy     :     0.274137

---------------------------------
LOEWDIN BOND ORDERS (THRESH 0.050000)
---------------------------------


------------------------------------------
LOEWDIN REDUCED ORBITAL POPULATIONS PER MO
-------------------------------------------
THRESHOLD FOR PRINTING IS 0.1%
                      0         1         2         3         4         5   
                 -144.95048 -101.31119 -101.31119 -15.03781 -12.17169 -12.17169
                   2.00000   2.00000   2.00000   2.00000   2.00000   2.00000
                  --------  --------  --------  --------  --------  --------
 0 Cl s               0.0      94.7       5.3       0.0       0.0       0.0
 1 Cl s               0.0       5.3      94.7       0.0       0.0       0.0
 2 Ca s             100.0       0.0       0.0     100.0       0.0       0.0
 2 Ca pz              0.0       0.0       0.0       0.0      57.7      37.7
 2 Ca px              0.0       0.0       0.0       0.0      14.8      47.6
 2 Ca py              0.0       0.0       0.0       0.0      27.5      14.7

                      6         7         8         9        10        11   
                 -12.17155  -9.26269  -9.26269  -7.02592  -7.02592  -7.02581
                   2.00000   2.00000   2.00000   2.00000   2.00000   2.00000
                  --------  --------  --------  --------  --------  --------
 0 Cl s               0.0      86.8      13.2       0.0       0.0       0.0
 0 Cl pz              0.0       0.0       0.0      10.7       0.1       0.4
 0 Cl px              0.0       0.0       0.0      27.4       0.3      66.7
 0 Cl py              0.0       0.0       0.0      61.0       0.6      32.9
 1 Cl s               0.0      13.2      86.8       0.0       0.0       0.0
 1 Cl pz              0.0       0.0       0.0       0.0       1.6       0.0
 1 Cl px              0.0       0.0       0.0       0.5      52.4       0.0
 1 Cl py              0.0       0.0       0.0       0.4      45.0       0.0
 2 Ca pz              4.6       0.0       0.0       0.0       0.0       0.0
 2 Ca px             37.6       0.0       0.0       0.0       0.0       0.0
 2 Ca py             57.8       0.0       0.0       0.0       0.0       0.0

                     12        13        14        15        16        17   
                  -7.02581  -7.02566  -7.02566  -1.45576  -0.73765  -0.73764
                   2.00000   2.00000   2.00000   2.00000   2.00000   2.00000
                  --------  --------  --------  --------  --------  --------
 0 Cl pz              0.0       1.0      87.8       0.0       0.0       0.0
 0 Cl px              0.0       0.1       5.6       0.0       0.0       0.0
 0 Cl py              0.0       0.1       5.5       0.0       0.0       0.0
 1 Cl pz             98.2       0.1       0.0       0.0       0.0       0.0
 1 Cl px              0.5      46.1       0.5       0.0       0.0       0.0
 1 Cl py              1.3      52.6       0.6       0.0       0.0       0.0
 2 Ca s               0.0       0.0       0.0     100.0       0.0       0.0
 2 Ca pz              0.0       0.0       0.0       0.0      91.4       3.9
 2 Ca px              0.0       0.0       0.0       0.0       0.1      62.0
 2 Ca py              0.0       0.0       0.0       0.0       8.5      34.0

                     18        19        20        21        22        23   
                  -0.73728  -0.62217  -0.62215  -0.17541  -0.17473  -0.17472
                   2.00000   2.00000   2.00000   2.00000   2.00000   2.00000
                  --------  --------  --------  --------  --------  --------
 0 Cl s               0.0      50.4      49.5       0.0       0.0       0.0
 0 Cl pz              0.0       0.0       0.0       3.0       0.0       0.8
 0 Cl px              0.0       0.0       0.0      20.9      54.3       0.0
 0 Cl py              0.0       0.0       0.0      25.8      45.1       0.0
 1 Cl s               0.0      49.5      50.5       0.0       0.0       0.0
 1 Cl pz              0.0       0.0       0.0       3.0       0.0      90.5
 1 Cl px              0.0       0.0       0.0      20.6       0.3       1.2
 1 Cl py              0.0       0.0       0.0      25.8       0.2       7.5
 2 Ca s               0.0       0.1       0.0       0.8       0.0       0.0
 2 Ca pz              4.6       0.0       0.0       0.0       0.0       0.0
 2 Ca px             37.9       0.0       0.0       0.0       0.0       0.0
 2 Ca py             57.4       0.0       0.0       0.0       0.0       0.0

                     24        25        26        27        28        29   
                  -0.17471  -0.17470  -0.17463  -0.05818   0.05490   0.05499
                   2.00000   2.00000   2.00000   2.00000   2.00000   2.00000
                  --------  --------  --------  --------  --------  --------
 0 Cl pz              0.5      93.5       2.2       0.0       0.0       0.0
 0 Cl px              0.7       2.3      21.6       0.1       0.0       0.0
 0 Cl py              0.0       3.2      25.6       0.2       0.0       0.0
 1 Cl pz              0.5       0.8       5.1       0.0       0.0       0.0
 1 Cl px             62.3       0.2      15.2       0.1       0.0       0.0
 1 Cl py             36.0       0.1      30.2       0.2       0.0       0.0
 2 Ca s               0.0       0.0       0.0      99.3       0.0       0.0
 2 Ca pz              0.0       0.0       0.0       0.0      11.7      45.6
 2 Ca px              0.0       0.0       0.0       0.0      46.5       9.0
 2 Ca py              0.0       0.0       0.0       0.0       1.4       4.7
 2 Ca dz2             0.0       0.0       0.0       0.0      11.1       7.0
 2 Ca dxz             0.0       0.0       0.0       0.0       0.0      12.5
 2 Ca dyz             0.0       0.0       0.0       0.0       2.9      12.8
 2 Ca dx2y2           0.0       0.0       0.0       0.0      26.4       8.4

                     30        31        32        33        34        35   
                   0.05515   0.13748   0.14243   0.14331   0.16069   0.16074
                   2.00000   0.00000   0.00000   0.00000   0.00000   0.00000
                  --------  --------  --------  --------  --------  --------
 0 Cl s               0.0       0.2       0.0       0.0       0.0       0.0
 1 Cl s               0.0       0.2       0.0       0.0       0.0       0.0
 2 Ca s               0.0      99.0       0.3       0.0       0.0       0.0
 2 Ca pz              2.0       0.0       0.0       0.0      39.8       0.0
 2 Ca px              4.2       0.0       0.0       0.0       0.4      28.1
 2 Ca py             54.1       0.0       0.0       0.0       0.5      12.6
 2 Ca dz2            13.7       0.1      19.6       0.1       8.2       0.2
 2 Ca dxz             2.7       0.0       4.2      58.7      18.6       1.9
 2 Ca dyz             6.9       0.0       6.9      37.4      30.8       0.5
 2 Ca dx2y2           2.9       0.0       3.6       3.8       0.0      54.8
 2 Ca dxy            13.6       0.2      65.2       0.1       1.7       1.9

                     36        37        38        39        40        41   
                   0.16116   0.41031   0.41035   0.41038   0.41165   0.41174
                   0.00000   0.00000   0.00000   0.00000   0.00000   0.00000
                  --------  --------  --------  --------  --------  --------
 0 Cl s               0.0       0.0       0.0       0.0       0.1       0.0
 1 Cl s               0.0       0.0       0.0       0.0       0.1       0.0
 2 Ca pz              0.9       0.0       0.1       0.0       0.0       0.0
 2 Ca px             11.7       0.1       0.0       0.0       0.0       0.0
 2 Ca py             26.7       0.1       0.0       0.1       0.0       0.0
 2 Ca dz2            40.1      70.4       9.7       0.0      19.6       0.1
 2 Ca dxz             1.4       2.0      36.2       0.2       4.5      57.0
 2 Ca dyz             1.8       0.7      42.5      12.5       5.3      38.8
 2 Ca dx2y2           0.1       6.1      10.7      74.7       4.6       3.8
 2 Ca dxy            17.3      20.7       0.7      12.5      65.6       0.3

                     42        43        44        45        46        47   
                   0.54600   0.55337   0.94027   0.94028   0.94028   0.94030
                   0.00000   0.00000   0.00000   0.00000   0.00000   0.00000
                  --------  --------  --------  --------  --------  --------
 0 Cl s              49.9      49.7       0.0       0.0       0.0       0.0
 0 Cl dz2             0.0       0.0      51.4       0.0       0.0       0.0
 0 Cl dxz             0.0       0.0       2.2       0.0       0.0       0.4
 0 Cl dyz             0.0       0.0       7.1       0.1       0.0      84.2
 0 Cl dx2y2           0.0       0.0      33.4       0.0       0.0      10.1
 0 Cl dxy             0.0       0.0       5.8       0.0       0.0       5.1
 1 Cl s              50.1      49.5       0.0       0.0       0.0       0.0
 1 Cl dz2             0.0       0.0       0.1      21.1      26.0       0.0
 1 Cl dxz             0.0       0.0       0.0       5.7       4.1       0.0
 1 Cl dyz             0.0       0.0       0.0      12.8      69.2       0.0
 1 Cl dx2y2           0.0       0.0       0.1      51.3       0.2       0.0
 1 Cl dxy             0.0       0.0       0.0       9.0       0.4       0.0
 2 Ca s               0.0       0.5       0.0       0.0       0.0       0.0
 2 Ca dxy             0.0       0.2       0.0       0.0       0.0       0.0

                     48        49        50        51        52        53   
                   0.94044   0.94045   0.94046   0.94047   0.94055   0.94064
                   0.00000   0.00000   0.00000   0.00000   0.00000   0.00000
                  --------  --------  --------  --------  --------  --------
 0 Cl dz2             2.0       0.0       0.0      27.5       9.8       9.2
 0 Cl dxz            57.5       0.2       0.0      34.6       2.1       2.9
 0 Cl dyz             0.1       0.0       0.0       2.8       2.6       3.1
 0 Cl dx2y2          26.2       0.0       0.0      28.3       1.2       0.8
 0 Cl dxy            14.2       0.5       0.0       6.5      33.1      34.6
 1 Cl dz2             0.0      24.6       5.2       0.1      12.8      10.1
 1 Cl dxz             0.0       8.6      74.3       0.0       3.7       3.6
 1 Cl dyz             0.0       2.4       0.1       0.0       8.5       7.0
 1 Cl dx2y2           0.0      29.3       8.7       0.1       6.9       3.3
 1 Cl dxy             0.0      34.3      11.6       0.0      19.3      25.3

                     54        55        56        57        58        59   
                   0.99534   0.99536   0.99538   0.99544   0.99547   0.99980
                   0.00000   0.00000   0.00000   0.00000   0.00000   0.00000
                  --------  --------  --------  --------  --------  --------
 0 Cl pz              3.9       1.3      12.2      19.2      60.3       3.2
 0 Cl px             24.6      14.3      29.8       8.6       1.6      21.1
 0 Cl py             42.2      13.5       7.6       1.8       9.0      25.7
 1 Cl pz              1.3       2.2      13.2      68.4      11.5       3.5
 1 Cl px              9.1      34.6      27.0       1.7       7.4      20.1
 1 Cl py             19.0      34.1      10.1       0.3      10.2      26.2
 2 Ca s               0.0       0.0       0.0       0.0       0.0       0.1



                      *****************************
                      * MAYER POPULATION ANALYSIS *
                      *****************************

  NA   - Mulliken gross atomic population
  ZA   - Total nuclear charge
  QA   - Mulliken gross atomic charge
  VA   - Mayer's total valence
  BVA  - Mayer's bonded valence
  FA   - Mayer's free valence

  ATOM       NA         ZA         QA         VA         BVA        FA
  0 Cl    17.9972    17.0000    -0.9972     0.0053     0.0053    -0.0000
  1 Cl    17.9972    17.0000    -0.9972     0.0053     0.0053     0.0000
  2 Ca    26.0057    20.0000    -6.0057     0.0106     0.0106     0.0000

  Mayer bond orders larger than 0.100000


-------
TIMINGS
-------

Total SCF time: 0 days 0 hours 0 min 4 sec 

Total time                  ....       4.312 sec
Sum of individual times     ....       4.005 sec  ( 92.9%)

Fock matrix formation       ....       2.981 sec  ( 69.1%)
  Split-RI-J                ....       0.181 sec  (  6.1% of F)
  Chain of spheres X        ....       2.229 sec  ( 74.8% of F)
  XC integration            ....       0.290 sec  (  9.7% of F)
    Basis function eval.    ....       0.092 sec  ( 31.8% of XC)
    Density eval.           ....       0.025 sec  (  8.8% of XC)
    XC-Functional eval.     ....       0.034 sec  ( 11.7% of XC)
    XC-Potential eval.      ....       0.066 sec  ( 22.6% of XC)
Diagonalization             ....       0.001 sec  (  0.0%)
Density matrix formation    ....       0.000 sec  (  0.0%)
Population analysis         ....       0.018 sec  (  0.4%)
Initial guess               ....       0.003 sec  (  0.1%)
Orbital Transformation      ....       0.000 sec  (  0.0%)
Orbital Orthonormalization  ....       0.001 sec  (  0.0%)
DIIS solution               ....       0.000 sec  (  0.0%)
SOSCF solution              ....       0.001 sec  (  0.0%)
Grid generation             ....       1.001 sec  ( 23.2%)

Maximum memory used throughout the entire SCF-calculation: 48.2 MB

-------------------------   --------------------
FINAL SINGLE POINT ENERGY     -1597.503299030634
-------------------------   --------------------

                                *** OPTIMIZATION RUN DONE ***

                            ***************************************
                            *     ORCA property calculations      *
                            ***************************************

                                    ---------------------
                                    Active property flags
                                    ---------------------
   (+) Dipole Moment


------------------------------------------------------------------------------
                       ORCA ELECTRIC PROPERTIES CALCULATION
------------------------------------------------------------------------------

Dipole Moment Calculation                       ... on
Quadrupole Moment Calculation                   ... off
Polarizability Calculation                      ... off
GBWName                                         ... CaCl2_DFT.gbw
Electron density                                ... CaCl2_DFT.scfp
SHARK General Contraction Test:  Segmented basis detected
   -> Pre-screening matrix found on disk - Trying to read with NShells=26
   -> Passing Pre-screening matrix on to SHARK ...ok
   -> Leaving CheckPreScreeningMatrix
----------------------
SHARK INTEGRAL PACKAGE
----------------------

Number of atoms                             ...      3
Number of basis functions                   ...     60
Number of shells                            ...     26
Maximum angular momentum                    ...      2
Integral batch strategy                     ... SHARK/LIBINT Hybrid
RI-J (if used) integral strategy            ... SPLIT-RIJ (Revised 2003 algorithm where possible)
Printlevel                                  ...      2
Contraction scheme used                     ... SEGMENTED contraction
Coulomb Range Separation                    ... NOT USED
Exchange Range Separation                   ... NOT USED
Finite Nucleus Model                        ... NOT USED
Auxiliary Coulomb fitting basis             ... AVAILABLE
   # of basis functions in Aux-J            ...    158
   # of shells in Aux-J                     ...     52
   Maximum angular momentum in Aux-J        ...      4
Auxiliary J/K fitting basis                 ... NOT available
Auxiliary Correlation fitting basis         ... NOT available
Auxiliary 'external' fitting basis          ... NOT available
Integral threshold                          ...     2.500000e-11
Primitive cut-off                           ...     2.500000e-12
Primitive pair pre-selection threshold      ...     2.500000e-12

The origin for moment calculation is the CENTER OF MASS  = ( 2.259576,  0.378568  0.235495)

-------------
DIPOLE MOMENT
-------------
                                X             Y             Z
Electronic contribution:      0.26515       0.16809       0.25480
Nuclear contribution   :     -0.03804      -0.02276      -0.03579
                        -----------------------------------------
Total Dipole Moment    :      0.22711       0.14532       0.21901
                        -----------------------------------------
Magnitude (a.u.)       :      0.34736
Magnitude (Debye)      :      0.88292



--------------------
Rotational spectrum 
--------------------
 
Rotational constants in cm-1:   180.500399     0.006019     0.006018 
Rotational constants in MHz : 5411265.834545   180.431871   180.425855 

 Dipole components along the rotational axes: 
x,y,z [a.u.] :    -0.013446    -0.347099     0.001447 
x,y,z [Debye]:    -0.034177    -0.882254     0.003677 

 

Timings for individual modules:

Sum of individual times         ...     4319.192 sec (=  71.987 min)
GTO integral calculation        ...       12.968 sec (=   0.216 min)   0.3 %
SCF iterations                  ...     4166.040 sec (=  69.434 min)  96.5 %
SCF Gradient evaluation         ...      136.655 sec (=   2.278 min)   3.2 %
Geometry relaxation             ...        3.529 sec (=   0.059 min)   0.1 %
                             ****ORCA TERMINATED NORMALLY****
TOTAL RUN TIME: 0 days 1 hours 12 minutes 9 seconds 89 msec
