
                                 *****************
                                 * O   R   C   A *
                                 *****************

                                            #,                                       
                                            ###                                      
                                            ####                                     
                                            #####                                    
                                            ######                                   
                                           ########,                                 
                                     ,,################,,,,,                         
                               ,,#################################,,                 
                          ,,##########################################,,             
                       ,#########################################, ''#####,          
                    ,#############################################,,   '####,        
                  ,##################################################,,,,####,       
                ,###########''''           ''''###############################       
              ,#####''   ,,,,##########,,,,          '''####'''          '####       
            ,##' ,,,,###########################,,,                        '##       
           ' ,,###''''                  '''############,,,                           
         ,,##''                                '''############,,,,        ,,,,,,###''
      ,#''                                            '''#######################'''  
     '                                                          ''''####''''         
             ,#######,   #######,   ,#######,      ##                                
            ,#'     '#,  ##    ##  ,#'     '#,    #''#        ######   ,####,        
            ##       ##  ##   ,#'  ##            #'  '#       #        #'  '#        
            ##       ##  #######   ##           ,######,      #####,   #    #        
            '#,     ,#'  ##    ##  '#,     ,#' ,#      #,         ##   #,  ,#        
             '#######'   ##     ##  '#######'  #'      '#     #####' # '####'        



                  #######################################################
                  #                        -***-                        #
                  #          Department of theory and spectroscopy      #
                  #    Directorship and core code : Frank Neese         #
                  #        Max Planck Institute fuer Kohlenforschung    #
                  #                Kaiser Wilhelm Platz 1               #
                  #                 D-45470 Muelheim/Ruhr               #
                  #                      Germany                        #
                  #                                                     #
                  #                  All rights reserved                #
                  #                        -***-                        #
                  #######################################################


                         Program Version 5.0.4 -  RELEASE  -


 With contributions from (in alphabetic order):
   Daniel Aravena         : Magnetic Suceptibility
   Michael Atanasov       : Ab Initio Ligand Field Theory (pilot matlab implementation)
   Alexander A. Auer      : GIAO ZORA, VPT2 properties, NMR spectrum
   Ute Becker             : Parallelization
   Giovanni Bistoni       : ED, misc. LED, open-shell LED, HFLD
   Martin Brehm           : Molecular dynamics
   Dmytro Bykov           : SCF Hessian
   Vijay G. Chilkuri      : MRCI spin determinant printing, contributions to CSF-ICE
   Dipayan Datta          : RHF DLPNO-CCSD density
   Achintya Kumar Dutta   : EOM-CC, STEOM-CC
   Dmitry Ganyushin       : Spin-Orbit,Spin-Spin,Magnetic field MRCI
   Miquel Garcia          : C-PCM and meta-GGA Hessian, CC/C-PCM, Gaussian charge scheme
   Yang Guo               : DLPNO-NEVPT2, F12-NEVPT2, CIM, IAO-localization
   Andreas Hansen         : Spin unrestricted coupled pair/coupled cluster methods
   Benjamin Helmich-Paris : MC-RPA, TRAH-SCF, COSX integrals
   Lee Huntington         : MR-EOM, pCC
   Robert Izsak           : Overlap fitted RIJCOSX, COSX-SCS-MP3, EOM
   Marcus Kettner         : VPT2
   Christian Kollmar      : KDIIS, OOCD, Brueckner-CCSD(T), CCSD density, CASPT2, CASPT2-K
   Simone Kossmann        : Meta GGA functionals, TD-DFT gradient, OOMP2, MP2 Hessian
   Martin Krupicka        : Initial AUTO-CI
   Lucas Lang             : DCDCAS
   Marvin Lechner         : AUTO-CI (C++ implementation), FIC-MRCC
   Dagmar Lenk            : GEPOL surface, SMD
   Dimitrios Liakos       : Extrapolation schemes; Compound Job, initial MDCI parallelization
   Dimitrios Manganas     : Further ROCIS development; embedding schemes
   Dimitrios Pantazis     : SARC Basis sets
   Anastasios Papadopoulos: AUTO-CI, single reference methods and gradients
   Taras Petrenko         : DFT Hessian,TD-DFT gradient, ASA, ECA, R-Raman, ABS, FL, XAS/XES, NRVS
   Peter Pinski           : DLPNO-MP2, DLPNO-MP2 Gradient
   Christoph Reimann      : Effective Core Potentials
   Marius Retegan         : Local ZFS, SOC
   Christoph Riplinger    : Optimizer, TS searches, QM/MM, DLPNO-CCSD(T), (RO)-DLPNO pert. Triples
   Tobias Risthaus        : Range-separated hybrids, TD-DFT gradient, RPA, STAB
   Michael Roemelt        : Original ROCIS implementation
   Masaaki Saitow         : Open-shell DLPNO-CCSD energy and density
   Barbara Sandhoefer     : DKH picture change effects
   Avijit Sen             : IP-ROCIS
   Kantharuban Sivalingam : CASSCF convergence, NEVPT2, FIC-MRCI
   Bernardo de Souza      : ESD, SOC TD-DFT
   Georgi Stoychev        : AutoAux, RI-MP2 NMR, DLPNO-MP2 response
   Willem Van den Heuvel  : Paramagnetic NMR
   Boris Wezisla          : Elementary symmetry handling
   Frank Wennmohs         : Technical directorship


 We gratefully acknowledge several colleagues who have allowed us to
 interface, adapt or use parts of their codes:
   Stefan Grimme, W. Hujo, H. Kruse, P. Pracht,  : VdW corrections, initial TS optimization,
                  C. Bannwarth, S. Ehlert          DFT functionals, gCP, sTDA/sTD-DF
   Ed Valeev, F. Pavosevic, A. Kumar             : LibInt (2-el integral package), F12 methods
   Garnet Chan, S. Sharma, J. Yang, R. Olivares  : DMRG
   Ulf Ekstrom                                   : XCFun DFT Library
   Mihaly Kallay                                 : mrcc  (arbitrary order and MRCC methods)
   Jiri Pittner, Ondrej Demel                    : Mk-CCSD
   Frank Weinhold                                : gennbo (NPA and NBO analysis)
   Christopher J. Cramer and Donald G. Truhlar   : smd solvation model
   Lars Goerigk                                  : TD-DFT with DH, B97 family of functionals
   V. Asgeirsson, H. Jonsson                     : NEB implementation
   FAccTs GmbH                                   : IRC, NEB, NEB-TS, DLPNO-Multilevel, CI-OPT
                                                   MM, QMMM, 2- and 3-layer-ONIOM, Crystal-QMMM,
                                                   LR-CPCM, SF, NACMEs, symmetry and pop. for TD-DFT,
                                                   nearIR, NL-DFT gradient (VV10), updates on ESD,
                                                   ML-optimized integration grids
   S Lehtola, MJT Oliveira, MAL Marques          : LibXC Library
   Liviu Ungur et al                             : ANISO software


 Your calculation uses the libint2 library for the computation of 2-el integrals
 For citations please refer to: http://libint.valeyev.net

 Your ORCA version has been built with support for libXC version: 5.1.0
 For citations please refer to: https://tddft.org/programs/libxc/

 This ORCA versions uses:
   CBLAS   interface :  Fast vector & matrix operations
   LAPACKE interface :  Fast linear algebra routines
   SCALAPACK package :  Parallel linear algebra routines
   Shared memory     :  Shared parallel matrices
   BLAS/LAPACK       :  OpenBLAS 0.3.15  USE64BITINT DYNAMIC_ARCH NO_AFFINITY SkylakeX SINGLE_THREADED
        Core in use  :  SkylakeX
   Copyright (c) 2011-2014, The OpenBLAS Project


================================================================================

----- Orbital basis set information -----
Your calculation utilizes the basis: def2-SVP
   F. Weigend and R. Ahlrichs, Phys. Chem. Chem. Phys. 7, 3297 (2005).

----- AuxJ basis set information -----
Your calculation utilizes the auxiliary basis: def2/J
   F. Weigend, Phys. Chem. Chem. Phys. 8, 1057 (2006).

================================================================================
                                        WARNINGS
                       Please study these warnings very carefully!
================================================================================


WARNING: Geometry Optimization
  ===> : Switching off AutoStart
         For restart on a previous wavefunction, please use MOREAD

INFO   : the flag for use of the SHARK integral package has been found!

================================================================================
                                       INPUT FILE
================================================================================
NAME = Na2SO4_DFT.inp
|  1> ## avogadro generated ORCA input file 
|  2> # Advanced Mode
|  3> # 
|  4> ! B3LYP OPT def2-SVP NormalPrint defgrid2 NormalSCF 
|  5> 
|  6> ! CPCM
|  7> %cpcm
|  8> epsilon 69.0
|  9> refrac 1.34
| 10> end
| 11> 
| 12> %scf
| 13> 	MaxIter 125
| 14> 	CNVDIIS 1
| 15> 	CNVSOSCF 1 
| 16> end
| 17> 
| 18> * xyz -10 1
| 19>    O        0.94029        0.07810        0.72640
| 20>    S        2.22173        0.18293        0.02726
| 21>    O        3.14176       -0.66796        0.78318
| 22>    O        2.11239       -0.24583       -1.36776
| 23>    O        2.69245        1.56737       -0.03280
| 24>   Na        1.67891       -1.25253        2.21218
| 25>   Na        2.76410        1.61822       -2.15788
| 26> *
| 27> 
| 28> 
| 29>                          ****END OF INPUT****
================================================================================

                       *****************************
                       * Geometry Optimization Run *
                       *****************************

Geometry optimization settings:
Update method            Update   .... BFGS
Choice of coordinates    CoordSys .... Z-matrix Internals
Initial Hessian          InHess   .... Almoef's Model

Convergence Tolerances:
Energy Change            TolE     ....  5.0000e-06 Eh
Max. Gradient            TolMAXG  ....  3.0000e-04 Eh/bohr
RMS Gradient             TolRMSG  ....  1.0000e-04 Eh/bohr
Max. Displacement        TolMAXD  ....  4.0000e-03 bohr
RMS Displacement         TolRMSD  ....  2.0000e-03 bohr
Strict Convergence                ....  False
------------------------------------------------------------------------------
                        ORCA OPTIMIZATION COORDINATE SETUP
------------------------------------------------------------------------------

The optimization will be done in new redundant internal coordinates
Making redundant internal coordinates   ...  (new redundants) done
Evaluating the initial hessian          ...  (Almloef) done
Evaluating the coordinates              ...  done
Calculating the B-matrix                .... done
Calculating the G-matrix                .... done
Diagonalizing the G-matrix              .... done
The first mode is                       ....   55
The number of degrees of freedom        ....   15

    -----------------------------------------------------------------
                    Redundant Internal Coordinates


    -----------------------------------------------------------------
         Definition                    Initial Value    Approx d2E/dq
    -----------------------------------------------------------------
      1. B(S   1,O   0)                  1.4635         1.151743   
      2. B(O   2,S   1)                  1.4635         1.151729   
      3. B(O   3,S   1)                  1.4635         1.151748   
      4. B(O   4,S   1)                  1.4635         1.151766   
      5. B(Na  5,S   1)                  2.6700         0.223339   
      6. B(Na  5,O   2)                  2.1269         0.545596   
      7. B(Na  5,O   0)                  2.1269         0.545603   
      8. B(Na  6,O   4)                  2.1269         0.545600   
      9. B(Na  6,O   3)                  2.1269         0.545593   
     10. B(Na  6,S   1)                  2.6700         0.223341   
     11. A(S   1,O   0,Na  5)           94.2699         0.568708   
     12. A(O   2,S   1,Na  6)          127.4123         0.502146   
     13. A(O   0,S   1,Na  5)           52.5957         0.502146   
     14. A(O   4,S   1,Na  6)           52.5958         0.502149   
     15. A(O   2,S   1,O   4)          111.6534         0.604812   
     16. A(O   3,S   1,Na  5)          127.3961         0.502147   
     17. A(O   0,S   1,O   4)          111.6531         0.604814   
     18. A(O   2,S   1,Na  5)           52.5958         0.502145   
     19. A(O   3,S   1,O   4)          105.1917         0.604814   
     20. A(O   0,S   1,O   2)          105.1915         0.604810   
     21. A(O   2,S   1,O   3)          111.6522         0.604810   
     22. A(O   4,S   1,Na  5)          127.4122         0.502148   
     23. A(O   3,S   1,Na  6)           52.5959         0.502148   
     24. A(O   0,S   1,O   3)          111.6512         0.604812   
     25. A(O   0,S   1,Na  6)          127.3962         0.502147   
     26. A(S   1,O   2,Na  5)           94.2697         0.568705   
     27. A(S   1,O   3,Na  6)           94.2696         0.568706   
     28. A(S   1,O   4,Na  6)           94.2699         0.568709   
     29. A(S   1,Na  5,O   2)           33.1345         0.473228   
     30. A(O   0,Na  5,O   2)           66.2689         0.535130   
     31. A(O   0,Na  5,S   1)           33.1344         0.473229   
     32. A(O   3,Na  6,O   4)           66.2687         0.535129   
     33. A(S   1,Na  6,O   4)           33.1343         0.473229   
     34. A(S   1,Na  6,O   3)           33.1344         0.473228   
     35. D(O   3,S   1,O   0,Na  5)    121.2666         0.035127   
     36. D(O   4,S   1,O   0,Na  5)   -121.2855         0.035127   
     37. D(Na  6,S   1,O   0,Na  5)    179.9900         0.035127   
     38. D(O   2,S   1,O   0,Na  5)     -0.0082         0.035127   
     39. D(Na  5,O   2,S   1,O   4)    121.2854         0.035126   
     40. D(Na  5,O   2,S   1,O   0)      0.0082         0.035126   
     41. D(Na  5,O   2,S   1,Na  6)   -179.9900         0.035126   
     42. D(Na  5,O   2,S   1,O   3)   -121.2659         0.035126   
     43. D(Na  6,O   3,S   1,Na  5)    179.9898         0.035127   
     44. D(Na  6,O   3,S   1,O   4)     -0.0093         0.035127   
     45. D(Na  6,O   3,S   1,O   2)   -121.2863         0.035127   
     46. D(Na  6,O   3,S   1,O   0)    121.2668         0.035127   
     47. D(Na  6,O   4,S   1,O   2)    121.2855         0.035128   
     48. D(Na  6,O   4,S   1,O   0)   -121.2655         0.035128   
     49. D(Na  6,O   4,S   1,O   3)      0.0093         0.035128   
     50. D(Na  6,O   4,S   1,Na  5)   -179.9898         0.035128   
     51. D(O   0,Na  5,O   2,S   1)     -0.0060         0.002269   
     52. D(O   2,Na  5,S   1,O   3)     90.0058         0.001571   
     53. D(O   2,Na  5,S   1,O   0)   -179.9900         0.001571   
     54. D(O   0,Na  5,S   1,O   4)     89.9948         0.001571   
     55. D(O   0,Na  5,S   1,O   3)    -90.0042         0.001571   
     56. D(O   2,Na  5,S   1,O   4)    -89.9952         0.001571   
     57. D(O   0,Na  5,S   1,O   2)    179.9900         0.001571   
     58. D(O   2,Na  5,O   0,S   1)      0.0060         0.002269   
     59. D(O   4,Na  6,S   1,O   3)   -179.9887         0.001571   
     60. D(O   4,Na  6,S   1,O   2)    -89.9951         0.001571   
     61. D(O   4,Na  6,S   1,O   0)     90.0071         0.001571   
     62. D(O   3,Na  6,S   1,O   4)    179.9887         0.001571   
     63. D(O   3,Na  6,S   1,O   2)     89.9935         0.001571   
     64. D(O   4,Na  6,O   3,S   1)      0.0068         0.002269   
     65. D(O   3,Na  6,S   1,O   0)    -90.0043         0.001571   
     66. D(O   4,Na  6,Na  5,O   2)    -89.9768         0.001500   
     67. D(O   4,Na  6,Na  5,O   0)     90.0011         0.001500   
     68. D(O   3,Na  6,Na  5,O   2)     89.9995         0.001500   
     69. D(O   3,Na  6,Na  5,O   0)    -90.0227         0.001500   
     70. D(O   3,Na  6,O   4,S   1)     -0.0068         0.002269   
    -----------------------------------------------------------------

Number of atoms                         .... 7
Number of degrees of freedom            .... 70

         *************************************************************
         *                GEOMETRY OPTIMIZATION CYCLE   1            *
         *************************************************************
---------------------------------
CARTESIAN COORDINATES (ANGSTROEM)
---------------------------------
  O      0.940290    0.078100    0.726400
  S      2.221730    0.182930    0.027260
  O      3.141760   -0.667960    0.783180
  O      2.112390   -0.245830   -1.367760
  O      2.692450    1.567370   -0.032800
  Na     1.678910   -1.252530    2.212180
  Na     2.764100    1.618220   -2.157880

----------------------------
CARTESIAN COORDINATES (A.U.)
----------------------------
  NO LB      ZA    FRAG     MASS         X           Y           Z
   0 O     8.0000    0    15.999    1.776891    0.147588    1.372697
   1 S    16.0000    0    32.060    4.198461    0.345688    0.051514
   2 O     8.0000    0    15.999    5.937066   -1.262261    1.479996
   3 O     8.0000    0    15.999    3.991839   -0.464551   -2.584692
   4 O     8.0000    0    15.999    5.087993    2.961900   -0.061983
   5 Na   11.0000    0    22.990    3.172680   -2.366939    4.180414
   6 Na   11.0000    0    22.990    5.223392    3.057993   -4.077802

--------------------------------
INTERNAL COORDINATES (ANGSTROEM)
--------------------------------
 O      0   0   0     0.000000000000     0.00000000     0.00000000
 S      1   0   0     1.463514448887     0.00000000     0.00000000
 O      2   1   0     1.463517693573   105.19148913     0.00000000
 O      2   1   3     1.463513298061   111.65118450   121.27478304
 O      2   1   3     1.463509014526   111.65314798   238.72270660
 Na     1   2   3     2.126893958264    94.26994362     0.00000000
 Na     5   2   1     2.126895496116    94.26990486   238.73452658

---------------------------
INTERNAL COORDINATES (A.U.)
---------------------------
 O      0   0   0     0.000000000000     0.00000000     0.00000000
 S      1   0   0     2.765641501432     0.00000000     0.00000000
 O      2   1   0     2.765647633000   105.19148913     0.00000000
 O      2   1   3     2.765639326686   111.65118450   121.27478304
 O      2   1   3     2.765631231980   111.65314798   238.72270660
 Na     1   2   3     4.019247097011    94.26994362     0.00000000
 Na     5   2   1     4.019250003130    94.26990486   238.73452658

---------------------
BASIS SET INFORMATION
---------------------
There are 3 groups of distinct atoms

 Group   1 Type O   : 7s4p1d contracted to 3s2p1d pattern {511/31/1}
 Group   2 Type S   : 10s7p1d contracted to 4s3p1d pattern {5311/511/1}
 Group   3 Type Na  : 10s6p1d contracted to 4s2p1d pattern {5311/51/1}

Atom   0O    basis set group =>   1
Atom   1S    basis set group =>   2
Atom   2O    basis set group =>   1
Atom   3O    basis set group =>   1
Atom   4O    basis set group =>   1
Atom   5Na   basis set group =>   3
Atom   6Na   basis set group =>   3
---------------------------------
AUXILIARY/J BASIS SET INFORMATION
---------------------------------
There are 3 groups of distinct atoms

 Group   1 Type O   : 12s5p4d2f1g contracted to 6s4p3d1f1g pattern {711111/2111/211/2/1}
 Group   2 Type S   : 14s5p5d2f1g contracted to 8s4p3d1f1g pattern {71111111/2111/311/2/1}
 Group   3 Type Na  : 14s5p5d2f1g contracted to 8s4p4d1f1g pattern {71111111/2111/2111/2/1}

Atom   0O    basis set group =>   1
Atom   1S    basis set group =>   2
Atom   2O    basis set group =>   1
Atom   3O    basis set group =>   1
Atom   4O    basis set group =>   1
Atom   5Na   basis set group =>   3
Atom   6Na   basis set group =>   3
------------------------------------------------------------------------------
                           ORCA GTO INTEGRAL CALCULATION
                           -- RI-GTO INTEGRALS CHOSEN --
------------------------------------------------------------------------------
------------------------------------------------------------------------------
                   ___                                                        
                  /   \      - P O W E R E D   B Y -                         
                 /     \                                                     
                 |  |  |   _    _      __       _____    __    __             
                 |  |  |  | |  | |    /  \     |  _  \  |  |  /  |          
                  \  \/   | |  | |   /    \    | | | |  |  | /  /          
                 / \  \   | |__| |  /  /\  \   | |_| |  |  |/  /          
                |  |  |   |  __  | /  /__\  \  |    /   |      \           
                |  |  |   | |  | | |   __   |  |    \   |  |\   \          
                \     /   | |  | | |  |  |  |  | |\  \  |  | \   \       
                 \___/    |_|  |_| |__|  |__|  |_| \__\ |__|  \__/        
                                                                              
                      - O R C A' S   B I G   F R I E N D -                    
                                      &                                       
                       - I N T E G R A L  F E E D E R -                       
                                                                              
 v1 FN, 2020, v2 2021                                                         
------------------------------------------------------------------------------


Reading SHARK input file Na2SO4_DFT.SHARKINP.tmp ... SHARK General Contraction Test:  Segmented basis detected
   -> Pre-screening matrix *NOT* found on disk - recalculating with NShells=46
   -> Leaving CheckPreScreeningMatrix
ok
----------------------
SHARK INTEGRAL PACKAGE
----------------------

Number of atoms                             ...      7
Number of basis functions                   ...    104
Number of shells                            ...     46
Maximum angular momentum                    ...      2
Integral batch strategy                     ... SHARK/LIBINT Hybrid
RI-J (if used) integral strategy            ... SPLIT-RIJ (Revised 2003 algorithm where possible)
Printlevel                                  ...      2
Contraction scheme used                     ... SEGMENTED contraction
Coulomb Range Separation                    ... NOT USED
Exchange Range Separation                   ... NOT USED
Finite Nucleus Model                        ... NOT USED
Auxiliary Coulomb fitting basis             ... AVAILABLE
   # of basis functions in Aux-J            ...    359
   # of shells in Aux-J                     ...    113
   Maximum angular momentum in Aux-J        ...      4
Auxiliary J/K fitting basis                 ... NOT available
Auxiliary Correlation fitting basis         ... NOT available
Auxiliary 'external' fitting basis          ... NOT available
Integral threshold                          ...     2.500000e-11
Primitive cut-off                           ...     2.500000e-12
Primitive pair pre-selection threshold      ...     2.500000e-12

Calculating pre-screening integrals         ... done (  0.1 sec) Dimension = 46
Organizing shell pair data                  ... done (  0.0 sec)
Shell pair information
Total number of shell pairs                 ...      1081
Shell pairs after pre-screening             ...      1033
Total number of primitive shell pairs       ...      5171
Primitive shell pairs kept                  ...      3454
          la=0 lb=0:    266 shell pairs
          la=1 lb=0:    350 shell pairs
          la=1 lb=1:    120 shell pairs
          la=2 lb=0:    164 shell pairs
          la=2 lb=1:    105 shell pairs
          la=2 lb=2:     28 shell pairs

Calculating one electron integrals          ... done (  0.0 sec)
Calculating RI/J V-Matrix + Cholesky decomp.... done (  0.1 sec)
Calculating Nuclear repulsion               ... done (  0.0 sec) ENN=    489.284483261554 Eh

SHARK setup successfully completed in   0.3 seconds

Maximum memory used throughout the entire GTOINT-calculation: 14.9 MB
-------------------------------------------------------------------------------
                                 ORCA SCF
-------------------------------------------------------------------------------

------------
SCF SETTINGS
------------
Hamiltonian:
 Density Functional     Method          .... DFT(GTOs)
 Exchange Functional    Exchange        .... B88
   X-Alpha parameter    XAlpha          ....  0.666667
   Becke's b parameter  XBeta           ....  0.004200
 Correlation Functional Correlation     .... LYP
 LDA part of GGA corr.  LDAOpt          .... VWN-5
 Gradients option       PostSCFGGA      .... off
 Hybrid DFT is turned on
   Fraction HF Exchange ScalHFX         ....  0.200000
   Scaling of DF-GGA-X  ScalDFX         ....  0.720000
   Scaling of DF-GGA-C  ScalDFC         ....  0.810000
   Scaling of DF-LDA-C  ScalLDAC        ....  1.000000
   Perturbative correction              ....  0.000000
   Density functional embedding theory  .... OFF
   NL short-range parameter             ....  4.800000
 RI-approximation to the Coulomb term is turned on
   Number of AuxJ basis functions       .... 359
   RIJ-COSX (HFX calculated with COS-X)).... on


General Settings:
 Integral files         IntName         .... Na2SO4_DFT
 Hartree-Fock type      HFTyp           .... RHF
 Total Charge           Charge          ....  -10
 Multiplicity           Mult            ....    1
 Number of Electrons    NEL             ....   80
 Basis Dimension        Dim             ....  104
 Nuclear Repulsion      ENuc            ....    489.2844832616 Eh

Convergence Acceleration:
 DIIS                   CNVDIIS         .... on
   Start iteration      DIISMaxIt       ....    12
   Startup error        DIISStart       ....  0.200000
   # of expansion vecs  DIISMaxEq       ....     5
   Bias factor          DIISBfac        ....   1.050
   Max. coefficient     DIISMaxC        ....  10.000
 Trust-Rad. Augm. Hess. CNVTRAH         .... auto
   Auto Start mean grad. ratio tolernc. ....  1.125000
   Auto Start start iteration           ....    20
   Auto Start num. interpolation iter.  ....    10
   Max. Number of Micro iterations      ....    16
   Max. Number of Macro iterations      .... Maxiter - #DIIS iter
   Number of Davidson start vectors     ....     2
   Converg. threshold I  (grad. norm)   ....   1.000e-05
   Converg. threshold II (energy diff.) ....   1.000e-08
   Grad. Scal. Fac. for Micro threshold ....   0.100
   Minimum threshold for Micro iter.    ....   0.010
   NR start threshold (gradient norm)   ....   0.001
   Initial trust radius                 ....   0.400
   Minimum AH scaling param. (alpha)    ....   1.000
   Maximum AH scaling param. (alpha)    .... 1000.000
   Orbital update algorithm             .... Taylor
   White noise on init. David. guess    .... on
   Maximum white noise                  ....   0.010
   Quad. conv. algorithm                .... NR
 SOSCF                  CNVSOSCF        .... on
   Start iteration      SOSCFMaxIt      ....   150
   Startup grad/error   SOSCFStart      ....  0.003300
 Level Shifting         CNVShift        .... on
   Level shift para.    LevelShift      ....    0.2500
   Turn off err/grad.   ShiftErr        ....    0.0010
 Zerner damping         CNVZerner       .... off
 Static damping         CNVDamp         .... on
   Fraction old density DampFac         ....    0.7000
   Max. Damping (<1)    DampMax         ....    0.9800
   Min. Damping (>=0)   DampMin         ....    0.0000
   Turn off err/grad.   DampErr         ....    0.1000
 Fernandez-Rico         CNVRico         .... off

SCF Procedure:
 Maximum # iterations   MaxIter         ....   125
 SCF integral mode      SCFMode         .... Direct
   Integral package                     .... SHARK and LIBINT hybrid scheme
 Reset frequency        DirectResetFreq ....    20
 Integral Threshold     Thresh          ....  2.500e-11 Eh
 Primitive CutOff       TCut            ....  2.500e-12 Eh

Convergence Tolerance:
 Convergence Check Mode ConvCheckMode   .... Total+1el-Energy
 Convergence forced     ConvForced      .... 0
 Energy Change          TolE            ....  1.000e-08 Eh
 1-El. energy change                    ....  1.000e-05 Eh
 Orbital Gradient       TolG            ....  1.000e-05
 Orbital Rotation angle TolX            ....  1.000e-05
 DIIS Error             TolErr          ....  5.000e-07


Diagonalization of the overlap matrix:
Smallest eigenvalue                        ... 5.099e-03
Time for diagonalization                   ...    0.002 sec
Threshold for overlap eigenvalues          ... 1.000e-08
Number of eigenvalues below threshold      ... 0
Time for construction of square roots      ...    0.004 sec
Total time needed                          ...    0.006 sec

SHARK General Contraction Test:  Segmented basis detected
   -> Pre-screening matrix found on disk - Trying to read with NShells=46
   -> Passing Pre-screening matrix on to SHARK ...ok
   -> Leaving CheckPreScreeningMatrix
----------------------
SHARK INTEGRAL PACKAGE
----------------------

Number of atoms                             ...      7
Number of basis functions                   ...    104
Number of shells                            ...     46
Maximum angular momentum                    ...      2
Integral batch strategy                     ... SHARK/LIBINT Hybrid
RI-J (if used) integral strategy            ... SPLIT-RIJ (Revised 2003 algorithm where possible)
Printlevel                                  ...      2
Contraction scheme used                     ... SEGMENTED contraction
Coulomb Range Separation                    ... NOT USED
Exchange Range Separation                   ... NOT USED
Finite Nucleus Model                        ... NOT USED
Auxiliary Coulomb fitting basis             ... AVAILABLE
   # of basis functions in Aux-J            ...    359
   # of shells in Aux-J                     ...    113
   Maximum angular momentum in Aux-J        ...      4
Auxiliary J/K fitting basis                 ... NOT available
Auxiliary Correlation fitting basis         ... NOT available
Auxiliary 'external' fitting basis          ... NOT available
Integral threshold                          ...     2.500000e-11
Primitive cut-off                           ...     2.500000e-12
Primitive pair pre-selection threshold      ...     2.500000e-12

Time for model grid setup =    0.172 sec

------------------------------
INITIAL GUESS: MODEL POTENTIAL
------------------------------
Loading Hartree-Fock densities                     ... done
Calculating cut-offs                               ... done
Initializing the effective Hamiltonian             ... done
Setting up the integral package (SHARK)            ... done
Starting the Coulomb interaction                   ...     -> Generating integrals - 
    -> L=0 0 :     0.009 sec done=     23358 skipped=        50 prim-skipped=         0
    -> L=1 0 :     0.014 sec done=     30494 skipped=       203 prim-skipped=         0
    -> L=1 1 :     0.007 sec done=     10472 skipped=         0 prim-skipped=         0
    -> L=2 0 :     0.006 sec done=     14292 skipped=       140 prim-skipped=         0
    -> L=2 1 :     0.006 sec done=      9240 skipped=         0 prim-skipped=         0
    -> L=2 2 :     0.002 sec done=      2464 skipped=         0 prim-skipped=         0
done (   0.1 sec)
Reading the grid                                   ... done
Mapping shells                                     ... done
Starting the XC term evaluation                    ... done (   0.2 sec)
  promolecular density results
     # of electrons  =     70.000261205
     EX              =    -86.053957207
     EC              =     -2.729323801
     EX+EC           =    -88.783281008
Transforming the Hamiltonian                       ... done (   0.0 sec)
Diagonalizing the Hamiltonian                      ... done (   0.0 sec)
Back transforming the eigenvectors                 ... done (   0.0 sec)
Now organizing SCF variables                       ... done
                      ------------------
                      INITIAL GUESS DONE (   0.4 sec)
                      ------------------
-------------------
DFT GRID GENERATION
-------------------

General Integration Accuracy     IntAcc      ... 4.388
Radial Grid Type                 RadialGrid  ... OptM3 with GC (2021)
Angular Grid (max. ang.)         AngularGrid ... 4 (Lebedev-302)
Angular grid pruning method      GridPruning ... 4 (adaptive)
Weight generation scheme         WeightScheme... Becke
Basis function cutoff            BFCut       ... 1.0000e-11
Integration weight cutoff        WCut        ... 1.0000e-14
Angular grids for H and He will be reduced by one unit
Partially contracted basis set               ... off
Rotationally invariant grid construction     ... off

Total number of grid points                  ...    46063
Total number of batches                      ...      724
Average number of points per batch           ...       63
Average number of grid points per atom       ...     6580
Time for grid setup =    0.761 sec

--------------------
COSX GRID GENERATION
--------------------

GRIDX 1
-------
General Integration Accuracy     IntAcc      ... 3.816
Radial Grid Type                 RadialGrid  ... OptM3 with GC (2021)
Angular Grid (max. ang.)         AngularGrid ... 1 (Lebedev-50)
Angular grid pruning method      GridPruning ... 4 (adaptive)
Weight generation scheme         WeightScheme... Becke
Basis function cutoff            BFCut       ... 1.0000e-11
Integration weight cutoff        WCut        ... 1.0000e-14
Angular grids for H and He will be reduced by one unit
Partially contracted basis set               ... on
Rotationally invariant grid construction     ... off

Total number of grid points                  ...     5564
Total number of batches                      ...       91
Average number of points per batch           ...       61
Average number of grid points per atom       ...      795
UseSFitting                                  ... on

GRIDX 2
-------
General Integration Accuracy     IntAcc      ... 4.020
Radial Grid Type                 RadialGrid  ... OptM3 with GC (2021)
Angular Grid (max. ang.)         AngularGrid ... 2 (Lebedev-110)
Angular grid pruning method      GridPruning ... 4 (adaptive)
Weight generation scheme         WeightScheme... Becke
Basis function cutoff            BFCut       ... 1.0000e-11
Integration weight cutoff        WCut        ... 1.0000e-14
Angular grids for H and He will be reduced by one unit
Partially contracted basis set               ... on
Rotationally invariant grid construction     ... off

Total number of grid points                  ...    13193
Total number of batches                      ...      209
Average number of points per batch           ...       63
Average number of grid points per atom       ...     1885
UseSFitting                                  ... on

GRIDX 3
-------
General Integration Accuracy     IntAcc      ... 4.338
Radial Grid Type                 RadialGrid  ... OptM3 with GC (2021)
Angular Grid (max. ang.)         AngularGrid ... 3 (Lebedev-194)
Angular grid pruning method      GridPruning ... 4 (adaptive)
Weight generation scheme         WeightScheme... Becke
Basis function cutoff            BFCut       ... 1.0000e-11
Integration weight cutoff        WCut        ... 1.0000e-14
Angular grids for H and He will be reduced by one unit
Partially contracted basis set               ... on
Rotationally invariant grid construction     ... off

Total number of grid points                  ...    31076
Total number of batches                      ...      489
Average number of points per batch           ...       63
Average number of grid points per atom       ...     4439
UseSFitting                                  ... on

Time for X-Grid setup             =    0.734 sec


--------------------
CPCM SOLVATION MODEL
--------------------
CPCM parameters:
  Epsilon                                         ...      69.0000
  Refrac                                          ...       1.3400
  Rsolv                                           ...       1.3000
  Surface type                                    ... GAUSSIAN VDW
  Epsilon function type                           ...         CPCM
Radii:
 Radius for O  used is    3.4469 Bohr (=   1.8240 Ang.)
 Radius for S  used is    4.0818 Bohr (=   2.1600 Ang.)
 Radius for Na used is    5.1476 Bohr (=   2.7240 Ang.)
Calculating surface                               ...        done! (  0.0s)
GEPOL surface points                              ...          418
GEPOL Volume                                      ...    1325.8013
GEPOL Surface-area                                ...     671.4950
Calculating surface distance matrix               ...        done! (  0.0s)
Performing Cholesky decomposition & store         ...        done! (  0.0s)
Overall time for CPCM initialization              ...                 0.0s
--------------
SCF ITERATIONS
--------------
               ***  Starting incremental Fock matrix formation  ***
==>> SHARK/AuxDens: NDens=1 Thresh =     2.500000e-11 TCut=    2.500000e-12 Lmax=2 LmaxAux=4
    -> Making Hermite density - ok     0.002 sec
    -> Making Aux-basis density - (lmax=2)
    -> L=0 0:    0.009 sec done=     29776 ( 99.1%) skipped=       282 
    -> L=1 0:    0.018 sec done=     38899 ( 98.4%) skipped=       651 
    -> L=1 1:    0.013 sec done=     13447 (100.0%) skipped=         0 
    -> L=2 0:    0.059 sec done=     17076 ( 92.1%) skipped=      1456 
    -> L=2 1:    0.012 sec done=     11864 (100.0%) skipped=         1 
    -> L=2 2:    0.003 sec done=      3164 (100.0%) skipped=         0 
    -> Aux basis density formed in    0.1 sec
    -> Solving linear equations - ok (   0.0 sec)
        Auxbasis Hermite Density:
        P|s>                     ...  0.000
        P|p>                     ...  0.000
        P|d>                     ...  0.000
        P|f>                     ...  0.000
        P|g>                     ...  0.000
        Building the Coulomb matrix: 
        J|ss>                          ... done (  0.0 sec) ndone=   176016 nskipped1=      162 nskipped2=     2524
        J|ps>                          ... done (  0.0 sec) ndone=   215557 nskipped1=     2135 nskipped2=    13940
        J|pp>                          ... done (  0.0 sec) ndone=    85898 nskipped1=        9 nskipped2=     2062
        J|ds>                          ... done (  0.0 sec) ndone=    61326 nskipped1=      429 nskipped2=     5036
        J|dp>                          ... done (  0.0 sec) ndone=    40249 nskipped1=        0 nskipped2=      284
        J|dd>                          ... done (  0.0 sec) ndone=     4956 nskipped1=        0 nskipped2=        0
        Coulomb matrix built in   0.1 sec

        Total time for Split-RI-J                ...    0.208 sec
          (0) Prelude                            ...    0.000 sec
          (1) Hermite density                    ...    0.000 sec
          (2) Aux basis density                  ...    0.000 sec (inner=  0.0)
          (3) Linear equation solution           ...    0.000 sec
          (4) J-Matrix construction              ...    0.090 sec (inner=  0.1)
        ---------------------------------------------------------

                         ----------------------------
                         !        ITERATION     0   !
                         ----------------------------
   Total Energy        :   -1022.213278898895 Eh
   Energy Change       :   -1022.213278898895 Eh
   MAX-DP              :       0.762318226102
   RMS-DP              :       0.017790460064
   Actual Damping      :       0.7000
   Actual Level Shift  :       0.2500 Eh
   Int. Num. El.       :    79.98088334 (UP=   39.99044167 DN=   39.99044167)
   Exchange            :   -71.18124899
   Correlation         :    -3.49193214

==>> SHARK/AuxDens: NDens=1 Thresh =     2.500000e-11 TCut=    2.500000e-12 Lmax=2 LmaxAux=4
    -> Making Hermite density - ok     0.052 sec
    -> Making Aux-basis density - (lmax=2)
    -> L=0 0:    0.009 sec done=     29618 ( 98.5%) skipped=       440 
    -> L=1 0:    0.019 sec done=     38742 ( 98.0%) skipped=       808 
    -> L=1 1:    0.013 sec done=     13447 (100.0%) skipped=         0 
    -> L=2 0:    0.059 sec done=     16553 ( 89.3%) skipped=      1979 
    -> L=2 1:    0.012 sec done=     11805 ( 99.5%) skipped=        60 
    -> L=2 2:    0.003 sec done=      3164 (100.0%) skipped=         0 
    -> Aux basis density formed in    0.1 sec
    -> Solving linear equations - ok (   0.0 sec)
        Auxbasis Hermite Density:
        P|s>                     ... -0.000
        P|p>                     ... -0.000
        P|d>                     ... -0.000
        P|f>                     ... -0.000
        P|g>                     ... -0.000
        Building the Coulomb matrix: 
        J|ss>                          ... done (  0.0 sec) ndone=   175228 nskipped1=      696 nskipped2=     2508
        J|ps>                          ... done (  0.0 sec) ndone=   213871 nskipped1=     4020 nskipped2=    12217
        J|pp>                          ... done (  0.1 sec) ndone=    85835 nskipped1=       42 nskipped2=     2062
        J|ds>                          ... done (  0.0 sec) ndone=    59653 nskipped1=     1933 nskipped2=     4218
        J|dp>                          ... done (  0.0 sec) ndone=    40237 nskipped1=        8 nskipped2=      284
        J|dd>                          ... done (  0.0 sec) ndone=     4956 nskipped1=        0 nskipped2=        0
        Coulomb matrix built in   0.1 sec

        Total time for Split-RI-J                ...    0.271 sec
          (0) Prelude                            ...    0.000 sec
          (1) Hermite density                    ...    0.000 sec
          (2) Aux basis density                  ...    0.000 sec (inner=  0.0)
          (3) Linear equation solution           ...    0.000 sec
          (4) J-Matrix construction              ...    0.103 sec (inner=  0.1)
        ---------------------------------------------------------

                         ----------------------------
                         !        ITERATION     1   !
                         ----------------------------
   Total Energy        :   -1022.580612287815 Eh
   Energy Change       :      -0.367333388920 Eh
   MAX-DP              :       0.913794892387
   RMS-DP              :       0.020451703008
   Actual Damping      :       0.7000
   Actual Level Shift  :       0.2500 Eh
   Int. Num. El.       :    79.97321706 (UP=   39.98660853 DN=   39.98660853)
   Exchange            :   -70.47958733
   Correlation         :    -3.46895421

==>> SHARK/AuxDens: NDens=1 Thresh =     2.500000e-11 TCut=    2.500000e-12 Lmax=2 LmaxAux=4
    -> Making Hermite density - ok     0.004 sec
    -> Making Aux-basis density - (lmax=2)
    -> L=0 0:    0.009 sec done=     29614 ( 98.5%) skipped=       444 
    -> L=1 0:    0.069 sec done=     38697 ( 97.8%) skipped=       853 
    -> L=1 1:    0.013 sec done=     13447 (100.0%) skipped=         0 
    -> L=2 0:    0.008 sec done=     16483 ( 88.9%) skipped=      2049 
    -> L=2 1:    0.011 sec done=     11763 ( 99.1%) skipped=       102 
    -> L=2 2:    0.003 sec done=      3164 (100.0%) skipped=         0 
    -> Aux basis density formed in    0.1 sec
    -> Solving linear equations - ok (   0.0 sec)
        Auxbasis Hermite Density:
        P|s>                     ... -0.000
        P|p>                     ... -0.000
        P|d>                     ... -0.000
        P|f>                     ... -0.000
        P|g>                     ... -0.000
        Building the Coulomb matrix: 
        J|ss>                          ... done (  0.0 sec) ndone=   175194 nskipped1=      738 nskipped2=     2502
        J|ps>                          ... done (  0.1 sec) ndone=   213301 nskipped1=     4441 nskipped2=    11982
        J|pp>                          ... done (  0.0 sec) ndone=    85862 nskipped1=       33 nskipped2=     2062
        J|ds>                          ... done (  0.0 sec) ndone=    59225 nskipped1=     2403 nskipped2=     3822
        J|dp>                          ... done (  0.0 sec) ndone=    40237 nskipped1=        8 nskipped2=      284
        J|dd>                          ... done (  0.0 sec) ndone=     4956 nskipped1=        0 nskipped2=        0
        Coulomb matrix built in   0.1 sec

        Total time for Split-RI-J                ...    0.221 sec
          (0) Prelude                            ...    0.000 sec
          (1) Hermite density                    ...    0.000 sec
          (2) Aux basis density                  ...    0.000 sec (inner=  0.0)
          (3) Linear equation solution           ...    0.000 sec
          (4) J-Matrix construction              ...    0.101 sec (inner=  0.1)
        ---------------------------------------------------------
                               ***Turning on DIIS***

                         ----------------------------
                         !        ITERATION     2   !
                         ----------------------------
   Total Energy        :   -1022.738227022204 Eh
   Energy Change       :      -0.157614734390 Eh
   MAX-DP              :       2.643891460295
   RMS-DP              :       0.057183730480
   Actual Damping      :       0.0000
   Actual Level Shift  :       0.2500 Eh
   Int. Num. El.       :    79.96439672 (UP=   39.98219836 DN=   39.98219836)
   Exchange            :   -70.07077183
   Correlation         :    -3.45251574
   DIIS-Error          :       0.031576108908

==>> SHARK/AuxDens: NDens=1 Thresh =     2.500000e-11 TCut=    2.500000e-12 Lmax=2 LmaxAux=4
    -> Making Hermite density - ok     0.002 sec
    -> Making Aux-basis density - (lmax=2)
    -> L=0 0:    0.009 sec done=     29870 ( 99.4%) skipped=       188 
    -> L=1 0:    0.069 sec done=     38966 ( 98.5%) skipped=       584 
    -> L=1 1:    0.013 sec done=     13447 (100.0%) skipped=         0 
    -> L=2 0:    0.009 sec done=     16769 ( 90.5%) skipped=      1763 
    -> L=2 1:    0.012 sec done=     11845 ( 99.8%) skipped=        20 
    -> L=2 2:    0.003 sec done=      3164 (100.0%) skipped=         0 
    -> Aux basis density formed in    0.1 sec
    -> Solving linear equations - ok (   0.0 sec)
        Auxbasis Hermite Density:
        P|s>                     ... -0.000
        P|p>                     ... -0.000
        P|d>                     ... -0.000
        P|f>                     ... -0.000
        P|g>                     ... -0.000
        Building the Coulomb matrix: 
        J|ss>                          ... done (  0.1 sec) ndone=   175698 nskipped1=      342 nskipped2=     2482
        J|ps>                          ... done (  0.0 sec) ndone=   214735 nskipped1=     3233 nskipped2=    12222
        J|pp>                          ... done (  0.0 sec) ndone=    85877 nskipped1=       21 nskipped2=     2062
        J|ds>                          ... done (  0.0 sec) ndone=    60360 nskipped1=     1196 nskipped2=     4316
        J|dp>                          ... done (  0.0 sec) ndone=    40245 nskipped1=        4 nskipped2=      284
        J|dd>                          ... done (  0.0 sec) ndone=     4956 nskipped1=        0 nskipped2=        0
        Coulomb matrix built in   0.1 sec

        Total time for Split-RI-J                ...    0.219 sec
          (0) Prelude                            ...    0.000 sec
          (1) Hermite density                    ...    0.000 sec
          (2) Aux basis density                  ...    0.000 sec (inner=  0.0)
          (3) Linear equation solution           ...    0.000 sec
          (4) J-Matrix construction              ...    0.101 sec (inner=  0.1)
        ---------------------------------------------------------

                         ----------------------------
                         !        ITERATION     3   !
                         ----------------------------
   Total Energy        :   -1023.024740791466 Eh
   Energy Change       :      -0.286513769261 Eh
   MAX-DP              :       0.178842913051
   RMS-DP              :       0.004262032628
   Actual Damping      :       0.0000
   Actual Level Shift  :       0.2500 Eh
   Int. Num. El.       :    79.93946604 (UP=   39.96973302 DN=   39.96973302)
   Exchange            :   -69.55965592
   Correlation         :    -3.42330607
   DIIS-Error          :       0.099878961347
   DIIS coefficients:
      0.71319   0.28681

==>> SHARK/AuxDens: NDens=1 Thresh =     2.500000e-11 TCut=    2.500000e-12 Lmax=2 LmaxAux=4
    -> Making Hermite density - ok     0.002 sec
    -> Making Aux-basis density - (lmax=2)
    -> L=0 0:    0.008 sec done=     28612 ( 95.2%) skipped=      1446 
    -> L=1 0:    0.068 sec done=     37386 ( 94.5%) skipped=      2164 
    -> L=1 1:    0.013 sec done=     13444 (100.0%) skipped=         3 
    -> L=2 0:    0.008 sec done=     16280 ( 87.8%) skipped=      2252 
    -> L=2 1:    0.012 sec done=     11641 ( 98.1%) skipped=       224 
    -> L=2 2:    0.003 sec done=      3164 (100.0%) skipped=         0 
    -> Aux basis density formed in    0.1 sec
    -> Solving linear equations - ok (   0.0 sec)
        Auxbasis Hermite Density:
        P|s>                     ... -0.000
        P|p>                     ... -0.000
        P|d>                     ... -0.000
        P|f>                     ... -0.000
        P|g>                     ... -0.000
        Building the Coulomb matrix: 
        J|ss>                          ... done (  0.0 sec) ndone=   174416 nskipped1=     1230 nskipped2=     2366
        J|ps>                          ... done (  0.0 sec) ndone=   212041 nskipped1=     5511 nskipped2=    10989
        J|pp>                          ... done (  0.0 sec) ndone=    85816 nskipped1=       72 nskipped2=     2057
        J|ds>                          ... done (  0.0 sec) ndone=    58331 nskipped1=     3330 nskipped2=     2851
        J|dp>                          ... done (  0.1 sec) ndone=    40225 nskipped1=       16 nskipped2=      284
        J|dd>                          ... done (  0.0 sec) ndone=     4956 nskipped1=        0 nskipped2=        0
        Coulomb matrix built in   0.1 sec

        Total time for Split-RI-J                ...    0.277 sec
          (0) Prelude                            ...    0.000 sec
          (1) Hermite density                    ...    0.000 sec
          (2) Aux basis density                  ...    0.000 sec (inner=  0.0)
          (3) Linear equation solution           ...    0.000 sec
          (4) J-Matrix construction              ...    0.101 sec (inner=  0.1)
        ---------------------------------------------------------

                         ----------------------------
                         !        ITERATION     4   !
                         ----------------------------
   Total Energy        :   -1023.065943499408 Eh
   Energy Change       :      -0.041202707942 Eh
   MAX-DP              :       0.118762545083
   RMS-DP              :       0.002287308411
   Actual Damping      :       0.0000
   Actual Level Shift  :       0.2500 Eh
   Int. Num. El.       :    79.93802707 (UP=   39.96901354 DN=   39.96901354)
   Exchange            :   -69.76881808
   Correlation         :    -3.42850153
   DIIS-Error          :       0.026400358775
   DIIS coefficients:
      0.16141  -0.18511   1.02371

==>> SHARK/AuxDens: NDens=1 Thresh =     2.500000e-11 TCut=    2.500000e-12 Lmax=2 LmaxAux=4
    -> Making Hermite density - ok     0.063 sec
    -> Making Aux-basis density - (lmax=2)
    -> L=0 0:    0.008 sec done=     28688 ( 95.4%) skipped=      1370 
    -> L=1 0:    0.015 sec done=     37290 ( 94.3%) skipped=      2260 
    -> L=1 1:    0.013 sec done=     13427 ( 99.9%) skipped=        20 
    -> L=2 0:    0.007 sec done=     16286 ( 87.9%) skipped=      2246 
    -> L=2 1:    0.060 sec done=     11656 ( 98.2%) skipped=       209 
    -> L=2 2:    0.002 sec done=      3164 (100.0%) skipped=         0 
    -> Aux basis density formed in    0.1 sec
    -> Solving linear equations - ok (   0.0 sec)
        Auxbasis Hermite Density:
        P|s>                     ... -0.000
        P|p>                     ... -0.000
        P|d>                     ... -0.000
        P|f>                     ... -0.000
        P|g>                     ... -0.000
        Building the Coulomb matrix: 
        J|ss>                          ... done (  0.0 sec) ndone=   173738 nskipped1=     1588 nskipped2=     2178
        J|ps>                          ... done (  0.0 sec) ndone=   211109 nskipped1=     6280 nskipped2=    10098
        J|pp>                          ... done (  0.0 sec) ndone=    85774 nskipped1=      102 nskipped2=     2018
        J|ds>                          ... done (  0.0 sec) ndone=    57538 nskipped1=     4193 nskipped2=     1878
        J|dp>                          ... done (  0.1 sec) ndone=    40223 nskipped1=       22 nskipped2=      284
        J|dd>                          ... done (  0.0 sec) ndone=     4956 nskipped1=        0 nskipped2=        0
        Coulomb matrix built in   0.1 sec

        Total time for Split-RI-J                ...    0.265 sec
          (0) Prelude                            ...    0.000 sec
          (1) Hermite density                    ...    0.000 sec
          (2) Aux basis density                  ...    0.000 sec (inner=  0.0)
          (3) Linear equation solution           ...    0.000 sec
          (4) J-Matrix construction              ...    0.093 sec (inner=  0.1)
        ---------------------------------------------------------

                         ----------------------------
                         !        ITERATION     5   !
                         ----------------------------
   Total Energy        :   -1023.071990282086 Eh
   Energy Change       :      -0.006046782678 Eh
   MAX-DP              :       0.046404466263
   RMS-DP              :       0.001294175496
   Actual Damping      :       0.0000
   Actual Level Shift  :       0.2500 Eh
   Int. Num. El.       :    79.93841357 (UP=   39.96920678 DN=   39.96920678)
   Exchange            :   -69.84448107
   Correlation         :    -3.43102240
   DIIS-Error          :       0.010489699852
   DIIS coefficients:
      0.02162  -0.10759   0.19436   0.89161

==>> SHARK/AuxDens: NDens=1 Thresh =     2.500000e-11 TCut=    2.500000e-12 Lmax=2 LmaxAux=4
    -> Making Hermite density - ok     0.003 sec
    -> Making Aux-basis density - (lmax=2)
    -> L=0 0:    0.013 sec done=     28849 ( 96.0%) skipped=      1209 
    -> L=1 0:    0.070 sec done=     36668 ( 92.7%) skipped=      2882 
    -> L=1 1:    0.013 sec done=     13410 ( 99.7%) skipped=        37 
    -> L=2 0:    0.008 sec done=     16272 ( 87.8%) skipped=      2260 
    -> L=2 1:    0.011 sec done=     11504 ( 97.0%) skipped=       361 
    -> L=2 2:    0.057 sec done=      3164 (100.0%) skipped=         0 
    -> Aux basis density formed in    0.2 sec
    -> Solving linear equations - ok (   0.0 sec)
        Auxbasis Hermite Density:
        P|s>                     ... -0.000
        P|p>                     ... -0.000
        P|d>                     ... -0.000
        P|f>                     ... -0.000
        P|g>                     ... -0.000
        Building the Coulomb matrix: 
        J|ss>                          ... done (  0.0 sec) ndone=   171874 nskipped1=     2932 nskipped2=     2060
        J|ps>                          ... done (  0.0 sec) ndone=   208981 nskipped1=     8250 nskipped2=     9471
        J|pp>                          ... done (  0.0 sec) ndone=    85573 nskipped1=      234 nskipped2=     1976
        J|ds>                          ... done (  0.0 sec) ndone=    55885 nskipped1=     5866 nskipped2=     1059
        J|dp>                          ... done (  0.1 sec) ndone=    40192 nskipped1=       43 nskipped2=      284
        J|dd>                          ... done (  0.0 sec) ndone=     4956 nskipped1=        0 nskipped2=        0
        Coulomb matrix built in   0.1 sec

        Total time for Split-RI-J                ...    0.276 sec
          (0) Prelude                            ...    0.000 sec
          (1) Hermite density                    ...    0.000 sec
          (2) Aux basis density                  ...    0.000 sec (inner=  0.0)
          (3) Linear equation solution           ...    0.000 sec
          (4) J-Matrix construction              ...    0.098 sec (inner=  0.1)
        ---------------------------------------------------------

                         ----------------------------
                         !        ITERATION     6   !
                         ----------------------------
   Total Energy        :   -1023.073655685410 Eh
   Energy Change       :      -0.001665403324 Eh
   MAX-DP              :       0.039115925392
   RMS-DP              :       0.000864614479
   Actual Damping      :       0.0000
   Actual Level Shift  :       0.2500 Eh
   Int. Num. El.       :    79.93871518 (UP=   39.96935759 DN=   39.96935759)
   Exchange            :   -69.85822638
   Correlation         :    -3.43143515
   DIIS-Error          :       0.008449964242
   DIIS coefficients:
     -0.02494   0.00334  -0.11596  -0.05617   1.19373

==>> SHARK/AuxDens: NDens=1 Thresh =     2.500000e-11 TCut=    2.500000e-12 Lmax=2 LmaxAux=4
    -> Making Hermite density - ok     0.003 sec
    -> Making Aux-basis density - (lmax=2)
    -> L=0 0:    0.059 sec done=     27919 ( 92.9%) skipped=      2139 
    -> L=1 0:    0.018 sec done=     36353 ( 91.9%) skipped=      3197 
    -> L=1 1:    0.013 sec done=     13392 ( 99.6%) skipped=        55 
    -> L=2 0:    0.008 sec done=     16269 ( 87.8%) skipped=      2263 
    -> L=2 1:    0.061 sec done=     11452 ( 96.5%) skipped=       413 
    -> L=2 2:    0.003 sec done=      3164 (100.0%) skipped=         0 
    -> Aux basis density formed in    0.2 sec
    -> Solving linear equations - ok (   0.0 sec)
        Auxbasis Hermite Density:
        P|s>                     ... -0.000
        P|p>                     ... -0.000
        P|d>                     ... -0.000
        P|f>                     ... -0.000
        P|g>                     ... -0.000
        Building the Coulomb matrix: 
        J|ss>                          ... done (  0.0 sec) ndone=   168262 nskipped1=     4290 nskipped2=     1382
        J|ps>                          ... done (  0.0 sec) ndone=   206231 nskipped1=     9748 nskipped2=     8602
        J|pp>                          ... done (  0.0 sec) ndone=    85143 nskipped1=      468 nskipped2=     1779
        J|ds>                          ... done (  0.0 sec) ndone=    54506 nskipped1=     6882 nskipped2=      532
        J|dp>                          ... done (  0.1 sec) ndone=    39983 nskipped1=      109 nskipped2=      284
        J|dd>                          ... done (  0.0 sec) ndone=     4956 nskipped1=        0 nskipped2=        0
        Coulomb matrix built in   0.1 sec

        Total time for Split-RI-J                ...    0.262 sec
          (0) Prelude                            ...    0.000 sec
          (1) Hermite density                    ...    0.000 sec
          (2) Aux basis density                  ...    0.000 sec (inner=  0.0)
          (3) Linear equation solution           ...    0.000 sec
          (4) J-Matrix construction              ...    0.096 sec (inner=  0.1)
        ---------------------------------------------------------

                         ----------------------------
                         !        ITERATION     7   !
                         ----------------------------
   Total Energy        :   -1023.074536334032 Eh
   Energy Change       :      -0.000880648623 Eh
   MAX-DP              :       0.033611673024
   RMS-DP              :       0.000616397700
   Actual Damping      :       0.0000
   Actual Level Shift  :       0.2500 Eh
   Int. Num. El.       :    79.93888317 (UP=   39.96944159 DN=   39.96944159)
   Exchange            :   -69.86601775
   Correlation         :    -3.43169420
   DIIS-Error          :       0.006870100629
   DIIS coefficients:
      1.59747   0.01272   0.01552  -0.21594  -0.40977

==>> SHARK/AuxDens: NDens=1 Thresh =     2.500000e-11 TCut=    2.500000e-12 Lmax=2 LmaxAux=4
    -> Making Hermite density - ok     0.002 sec
    -> Making Aux-basis density - (lmax=2)
    -> L=0 0:    0.007 sec done=     27183 ( 90.4%) skipped=      2875 
    -> L=1 0:    0.015 sec done=     35634 ( 90.1%) skipped=      3916 
    -> L=1 1:    0.011 sec done=     13376 ( 99.5%) skipped=        71 
    -> L=2 0:    0.007 sec done=     16220 ( 87.5%) skipped=      2312 
    -> L=2 1:    0.059 sec done=     11434 ( 96.4%) skipped=       431 
    -> L=2 2:    0.002 sec done=      3164 (100.0%) skipped=         0 
    -> Aux basis density formed in    0.1 sec
    -> Solving linear equations - ok (   0.0 sec)
        Auxbasis Hermite Density:
        P|s>                     ... -0.000
        P|p>                     ... -0.000
        P|d>                     ... -0.000
        P|f>                     ... -0.000
        P|g>                     ... -0.000
        Building the Coulomb matrix: 
        J|ss>                          ... done (  0.0 sec) ndone=   166910 nskipped1=     5424 nskipped2=     1336
        J|ps>                          ... done (  0.0 sec) ndone=   204896 nskipped1=    10955 nskipped2=     8366
        J|pp>                          ... done (  0.0 sec) ndone=    84977 nskipped1=      630 nskipped2=     1681
        J|ds>                          ... done (  0.0 sec) ndone=    53949 nskipped1=     7550 nskipped2=      371
        J|dp>                          ... done (  0.0 sec) ndone=    39899 nskipped1=      163 nskipped2=      284
        J|dd>                          ... done (  0.1 sec) ndone=     4956 nskipped1=        0 nskipped2=        0
        Coulomb matrix built in   0.1 sec

        Total time for Split-RI-J                ...    0.197 sec
          (0) Prelude                            ...    0.000 sec
          (1) Hermite density                    ...    0.000 sec
          (2) Aux basis density                  ...    0.000 sec (inner=  0.0)
          (3) Linear equation solution           ...    0.000 sec
          (4) J-Matrix construction              ...    0.092 sec (inner=  0.1)
        ---------------------------------------------------------

                         ----------------------------
                         !        ITERATION     8   !
                         ----------------------------
   Total Energy        :   -1023.075101660745 Eh
   Energy Change       :      -0.000565326713 Eh
   MAX-DP              :       0.029546751706
   RMS-DP              :       0.000506069733
   Actual Damping      :       0.0000
   Actual Level Shift  :       0.2500 Eh
   Int. Num. El.       :    79.93890095 (UP=   39.96945047 DN=   39.96945047)
   Exchange            :   -69.86595936
   Correlation         :    -3.43166653
   DIIS-Error          :       0.005618499362
   DIIS coefficients:
     -0.65187   2.03280   0.01605  -0.03513  -0.36185

==>> SHARK/AuxDens: NDens=1 Thresh =     2.500000e-11 TCut=    2.500000e-12 Lmax=2 LmaxAux=4
    -> Making Hermite density - ok     0.002 sec
    -> Making Aux-basis density - (lmax=2)
    -> L=0 0:    0.068 sec done=     26991 ( 89.8%) skipped=      3067 
    -> L=1 0:    0.016 sec done=     35572 ( 89.9%) skipped=      3978 
    -> L=1 1:    0.012 sec done=     13376 ( 99.5%) skipped=        71 
    -> L=2 0:    0.007 sec done=     16136 ( 87.1%) skipped=      2396 
    -> L=2 1:    0.009 sec done=     11425 ( 96.3%) skipped=       440 
    -> L=2 2:    0.053 sec done=      3164 (100.0%) skipped=         0 
    -> Aux basis density formed in    0.2 sec
    -> Solving linear equations - ok (   0.0 sec)
        Auxbasis Hermite Density:
        P|s>                     ... -0.000
        P|p>                     ... -0.000
        P|d>                     ... -0.000
        P|f>                     ... -0.000
        P|g>                     ... -0.000
        Building the Coulomb matrix: 
        J|ss>                          ... done (  0.0 sec) ndone=   165556 nskipped1=     6148 nskipped2=     1242
        J|ps>                          ... done (  0.0 sec) ndone=   203866 nskipped1=    11563 nskipped2=     8156
        J|pp>                          ... done (  0.0 sec) ndone=    84790 nskipped1=      744 nskipped2=     1694
        J|ds>                          ... done (  0.1 sec) ndone=    53569 nskipped1=     7822 nskipped2=      314
        J|dp>                          ... done (  0.0 sec) ndone=    39839 nskipped1=      191 nskipped2=      284
        J|dd>                          ... done (  0.0 sec) ndone=     4956 nskipped1=        0 nskipped2=        0
        Coulomb matrix built in   0.1 sec

        Total time for Split-RI-J                ...    0.278 sec
          (0) Prelude                            ...    0.000 sec
          (1) Hermite density                    ...    0.000 sec
          (2) Aux basis density                  ...    0.000 sec (inner=  0.0)
          (3) Linear equation solution           ...    0.000 sec
          (4) J-Matrix construction              ...    0.107 sec (inner=  0.1)
        ---------------------------------------------------------

                         ----------------------------
                         !        ITERATION     9   !
                         ----------------------------
   Total Energy        :   -1023.075501141743 Eh
   Energy Change       :      -0.000399480997 Eh
   MAX-DP              :       0.024467498435
   RMS-DP              :       0.000406457531
   Actual Damping      :       0.0000
   Actual Level Shift  :       0.2500 Eh
   Int. Num. El.       :    79.93890862 (UP=   39.96945431 DN=   39.96945431)
   Exchange            :   -69.86695919
   Correlation         :    -3.43167170
   DIIS-Error          :       0.004561548930
   DIIS coefficients:
     -0.74961   0.44728   1.41363   0.02974  -0.14104

==>> SHARK/AuxDens: NDens=1 Thresh =     2.500000e-11 TCut=    2.500000e-12 Lmax=2 LmaxAux=4
    -> Making Hermite density - ok     0.002 sec
    -> Making Aux-basis density - (lmax=2)
    -> L=0 0:    0.068 sec done=     26707 ( 88.9%) skipped=      3351 
    -> L=1 0:    0.017 sec done=     35590 ( 90.0%) skipped=      3960 
    -> L=1 1:    0.013 sec done=     13349 ( 99.3%) skipped=        98 
    -> L=2 0:    0.008 sec done=     15968 ( 86.2%) skipped=      2564 
    -> L=2 1:    0.072 sec done=     11417 ( 96.2%) skipped=       448 
    -> L=2 2:    0.003 sec done=      3163 (100.0%) skipped=         1 
    -> Aux basis density formed in    0.2 sec
    -> Solving linear equations - ok (   0.0 sec)
        Auxbasis Hermite Density:
        P|s>                     ... -0.000
        P|p>                     ... -0.000
        P|d>                     ... -0.000
        P|f>                     ... -0.000
        P|g>                     ... -0.000
        Building the Coulomb matrix: 
        J|ss>                          ... done (  0.0 sec) ndone=   164926 nskipped1=     6564 nskipped2=     1260
        J|ps>                          ... done (  0.0 sec) ndone=   203516 nskipped1=    11870 nskipped2=     8173
        J|pp>                          ... done (  0.0 sec) ndone=    84765 nskipped1=      771 nskipped2=     1677
        J|ds>                          ... done (  0.1 sec) ndone=    53376 nskipped1=     7997 nskipped2=      267
        J|dp>                          ... done (  0.0 sec) ndone=    39808 nskipped1=      207 nskipped2=      284
        J|dd>                          ... done (  0.0 sec) ndone=     4956 nskipped1=        0 nskipped2=        0
        Coulomb matrix built in   0.1 sec

        Total time for Split-RI-J                ...    0.279 sec
          (0) Prelude                            ...    0.000 sec
          (1) Hermite density                    ...    0.000 sec
          (2) Aux basis density                  ...    0.000 sec (inner=  0.0)
          (3) Linear equation solution           ...    0.000 sec
          (4) J-Matrix construction              ...    0.094 sec (inner=  0.1)
        ---------------------------------------------------------

                         ----------------------------
                         !        ITERATION    10   !
                         ----------------------------
   Total Energy        :   -1023.075770058997 Eh
   Energy Change       :      -0.000268917254 Eh
   MAX-DP              :       0.020488195930
   RMS-DP              :       0.000336278382
   Actual Damping      :       0.0000
   Actual Level Shift  :       0.2500 Eh
   Int. Num. El.       :    79.93891369 (UP=   39.96945685 DN=   39.96945685)
   Exchange            :   -69.86718147
   Correlation         :    -3.43166459
   DIIS-Error          :       0.003714876881
   DIIS coefficients:
     -0.33755  -0.57060   0.81216   1.11463  -0.01865

==>> SHARK/AuxDens: NDens=1 Thresh =     2.500000e-11 TCut=    2.500000e-12 Lmax=2 LmaxAux=4
    -> Making Hermite density - ok     0.003 sec
    -> Making Aux-basis density - (lmax=2)
    -> L=0 0:    0.007 sec done=     26515 ( 88.2%) skipped=      3543 
    -> L=1 0:    0.074 sec done=     35488 ( 89.7%) skipped=      4062 
    -> L=1 1:    0.011 sec done=     13332 ( 99.1%) skipped=       115 
    -> L=2 0:    0.007 sec done=     15888 ( 85.7%) skipped=      2644 
    -> L=2 1:    0.010 sec done=     11416 ( 96.2%) skipped=       449 
    -> L=2 2:    0.003 sec done=      3164 (100.0%) skipped=         0 
    -> Aux basis density formed in    0.1 sec
    -> Solving linear equations - ok (   0.0 sec)
        Auxbasis Hermite Density:
        P|s>                     ... -0.000
        P|p>                     ... -0.000
        P|d>                     ... -0.000
        P|f>                     ... -0.000
        P|g>                     ... -0.000
        Building the Coulomb matrix: 
        J|ss>                          ... done (  0.1 sec) ndone=   164518 nskipped1=     6978 nskipped2=     1250
        J|ps>                          ... done (  0.0 sec) ndone=   202883 nskipped1=    12350 nskipped2=     8160
        J|pp>                          ... done (  0.1 sec) ndone=    84669 nskipped1=      846 nskipped2=     1686
        J|ds>                          ... done (  0.0 sec) ndone=    53118 nskipped1=     8177 nskipped2=      275
        J|dp>                          ... done (  0.0 sec) ndone=    39786 nskipped1=      229 nskipped2=      284
        J|dd>                          ... done (  0.0 sec) ndone=     4956 nskipped1=        0 nskipped2=        0
        Coulomb matrix built in   0.2 sec

        Total time for Split-RI-J                ...    0.308 sec
          (0) Prelude                            ...    0.000 sec
          (1) Hermite density                    ...    0.000 sec
          (2) Aux basis density                  ...    0.000 sec (inner=  0.0)
          (3) Linear equation solution           ...    0.000 sec
          (4) J-Matrix construction              ...    0.192 sec (inner=  0.2)
        ---------------------------------------------------------
                      *** Initiating the SOSCF procedure ***
                           *** Shutting down DIIS ***
                      *** Re-Reading the Fockian *** 
                      *** Removing any level shift *** 

                         ----------------------------
                         !        ITERATION    11   !
                         ----------------------------
   Total Energy        :   -1023.075956084460 Eh
   Energy Change       :      -0.000186025463 Eh
   MAX-DP              :       0.018268076770
   RMS-DP              :       0.000301230436
   Orbital gradient    :       0.002707905406
   Orbital Rotation    :       0.002707905406
   Actual Damping      :       0.0000
   Int. Num. El.       :    79.93891225 (UP=   39.96945612 DN=   39.96945612)
   Exchange            :   -69.86666577
   Correlation         :    -3.43164340

               *** Restarting incremental Fock matrix formation ***
==>> SHARK/AuxDens: NDens=1 Thresh =     2.500000e-11 TCut=    2.500000e-12 Lmax=2 LmaxAux=4
    -> Making Hermite density - ok     0.003 sec
    -> Making Aux-basis density - (lmax=2)
    -> L=0 0:    0.018 sec done=     29824 ( 99.2%) skipped=       234 
    -> L=1 0:    0.087 sec done=     39039 ( 98.7%) skipped=       511 
    -> L=1 1:    0.015 sec done=     13447 (100.0%) skipped=         0 
    -> L=2 0:    0.011 sec done=     16924 ( 91.3%) skipped=      1608 
    -> L=2 1:    0.073 sec done=     11861 (100.0%) skipped=         4 
    -> L=2 2:    0.003 sec done=      3164 (100.0%) skipped=         0 
    -> Aux basis density formed in    0.2 sec
    -> Solving linear equations - ok (   0.0 sec)
        Auxbasis Hermite Density:
        P|s>                     ... -0.000
        P|p>                     ... -0.000
        P|d>                     ... -0.000
        P|f>                     ... -0.000
        P|g>                     ... -0.000
        Building the Coulomb matrix: 
        J|ss>                          ... done (  0.0 sec) ndone=   175978 nskipped1=      190 nskipped2=     2524
        J|ps>                          ... done (  0.1 sec) ndone=   215625 nskipped1=     2116 nskipped2=    13939
        J|pp>                          ... done (  0.0 sec) ndone=    85871 nskipped1=       24 nskipped2=     2062
        J|ds>                          ... done (  0.0 sec) ndone=    61349 nskipped1=      351 nskipped2=     5078
        J|dp>                          ... done (  0.0 sec) ndone=    40237 nskipped1=        8 nskipped2=      284
        J|dd>                          ... done (  0.0 sec) ndone=     4956 nskipped1=        0 nskipped2=        0
        Coulomb matrix built in   0.1 sec

        Total time for Split-RI-J                ...    0.326 sec
          (0) Prelude                            ...    0.000 sec
          (1) Hermite density                    ...    0.000 sec
          (2) Aux basis density                  ...    0.000 sec (inner=  0.0)
          (3) Linear equation solution           ...    0.000 sec
          (4) J-Matrix construction              ...    0.112 sec (inner=  0.1)
        ---------------------------------------------------------

                         ----------------------------
                         !        ITERATION    12   !
                         ----------------------------
   Total Energy        :   -1023.075959906655 Eh
   Energy Change       :      -0.000003822196 Eh
   MAX-DP              :       0.054476233322
   RMS-DP              :       0.000901058995
   Orbital gradient    :       0.001760149434
   Orbital Rotation    :       0.025442571963
   Actual Damping      :       0.0000
   Int. Num. El.       :    79.93890533 (UP=   39.96945266 DN=   39.96945266)
   Exchange            :   -69.86799723
   Correlation         :    -3.43166151

==>> SHARK/AuxDens: NDens=1 Thresh =     2.500000e-11 TCut=    2.500000e-12 Lmax=2 LmaxAux=4
    -> Making Hermite density - ok     0.002 sec
    -> Making Aux-basis density - (lmax=2)
    -> L=0 0:    0.008 sec done=     26836 ( 89.3%) skipped=      3222 
    -> L=1 0:    0.077 sec done=     35760 ( 90.4%) skipped=      3790 
    -> L=1 1:    0.012 sec done=     13443 (100.0%) skipped=         4 
    -> L=2 0:    0.008 sec done=     16028 ( 86.5%) skipped=      2504 
    -> L=2 1:    0.082 sec done=     11493 ( 96.9%) skipped=       372 
    -> L=2 2:    0.003 sec done=      3164 (100.0%) skipped=         0 
    -> Aux basis density formed in    0.2 sec
    -> Solving linear equations - ok (   0.0 sec)
        Auxbasis Hermite Density:
        P|s>                     ... -0.000
        P|p>                     ... -0.000
        P|d>                     ... -0.000
        P|f>                     ... -0.000
        P|g>                     ... -0.000
        Building the Coulomb matrix: 
        J|ss>                          ... done (  0.0 sec) ndone=   166970 nskipped1=     5340 nskipped2=     1384
        J|ps>                          ... done (  0.1 sec) ndone=   205096 nskipped1=    10730 nskipped2=     8514
        J|pp>                          ... done (  0.0 sec) ndone=    84893 nskipped1=      663 nskipped2=     1720
        J|ds>                          ... done (  0.0 sec) ndone=    54015 nskipped1=     7369 nskipped2=      456
        J|dp>                          ... done (  0.0 sec) ndone=    39900 nskipped1=      167 nskipped2=      284
        J|dd>                          ... done (  0.0 sec) ndone=     4956 nskipped1=        0 nskipped2=        0
        Coulomb matrix built in   0.1 sec

        Total time for Split-RI-J                ...    0.314 sec
          (0) Prelude                            ...    0.000 sec
          (1) Hermite density                    ...    0.000 sec
          (2) Aux basis density                  ...    0.000 sec (inner=  0.0)
          (3) Linear equation solution           ...    0.000 sec
          (4) J-Matrix construction              ...    0.118 sec (inner=  0.1)
        ---------------------------------------------------------

                         ----------------------------
                         !        ITERATION    13   !
                         ----------------------------
   Total Energy        :   -1023.076180926300 Eh
   Energy Change       :      -0.000221019645 Eh
   MAX-DP              :       0.021465122184
   RMS-DP              :       0.000432855263
   Orbital gradient    :       0.000437924054
   Orbital Rotation    :       0.010069073682
   Actual Damping      :       0.0000
   Int. Num. El.       :    79.93892722 (UP=   39.96946361 DN=   39.96946361)
   Exchange            :   -69.86473843
   Correlation         :    -3.43157226

==>> SHARK/AuxDens: NDens=1 Thresh =     2.500000e-11 TCut=    2.500000e-12 Lmax=2 LmaxAux=4
    -> Making Hermite density - ok     0.002 sec
    -> Making Aux-basis density - (lmax=2)
    -> L=0 0:    0.008 sec done=     27222 ( 90.6%) skipped=      2836 
    -> L=1 0:    0.078 sec done=     35703 ( 90.3%) skipped=      3847 
    -> L=1 1:    0.014 sec done=     13324 ( 99.1%) skipped=       123 
    -> L=2 0:    0.008 sec done=     16062 ( 86.7%) skipped=      2470 
    -> L=2 1:    0.012 sec done=     11416 ( 96.2%) skipped=       449 
    -> L=2 2:    0.003 sec done=      3164 (100.0%) skipped=         0 
    -> Aux basis density formed in    0.1 sec
    -> Solving linear equations - ok (   0.0 sec)
        Auxbasis Hermite Density:
        P|s>                     ... -0.000
        P|p>                     ... -0.000
        P|d>                     ... -0.000
        P|f>                     ... -0.000
        P|g>                     ... -0.000
        Building the Coulomb matrix: 
[...]

GRIDX 3
-------
General Integration Accuracy     IntAcc      ... 4.338
Radial Grid Type                 RadialGrid  ... OptM3 with GC (2021)
Angular Grid (max. ang.)         AngularGrid ... 3 (Lebedev-194)
Angular grid pruning method      GridPruning ... 4 (adaptive)
Weight generation scheme         WeightScheme... Becke
Basis function cutoff            BFCut       ... 1.0000e-11
Integration weight cutoff        WCut        ... 1.0000e-14
Angular grids for H and He will be reduced by one unit
Partially contracted basis set               ... on
Rotationally invariant grid construction     ... off

Total number of grid points                  ...    31448
Total number of batches                      ...      496
Average number of points per batch           ...       63
Average number of grid points per atom       ...     4493
UseSFitting                                  ... on

Time for X-Grid setup             =    0.605 sec


--------------------
CPCM SOLVATION MODEL
--------------------
CPCM parameters:
  Epsilon                                         ...      69.0000
  Refrac                                          ...       1.3400
  Rsolv                                           ...       1.3000
  Surface type                                    ... GAUSSIAN VDW
  Epsilon function type                           ...         CPCM
Radii:
 Radius for O  used is    3.4469 Bohr (=   1.8240 Ang.)
 Radius for S  used is    4.0818 Bohr (=   2.1600 Ang.)
 Radius for Na used is    5.1476 Bohr (=   2.7240 Ang.)
Calculating surface                               ...        done! (  0.0s)
GEPOL surface points                              ...          566
GEPOL Volume                                      ...    1671.0950
GEPOL Surface-area                                ...     946.7620
Calculating surface distance matrix               ...        done! (  0.0s)
Performing Cholesky decomposition & store         ...        done! (  0.0s)
Overall time for CPCM initialization              ...                 0.1s
--------------
SCF ITERATIONS
--------------
ITER       Energy         Delta-E        Max-DP      RMS-DP      [F,P]     Damp
               ***  Starting incremental Fock matrix formation  ***
                      *** Initiating the SOSCF procedure ***
                      *** Re-Reading the Fockian *** 
                      *** Removing any level shift *** 
ITER      Energy       Delta-E        Grad      Rot      Max-DP    RMS-DP
  0  -1023.27263476 -1023.2726347600  0.002862  0.002862  0.022129  0.000413
               *** Restarting incremental Fock matrix formation ***
  1  -1023.27287322  -0.0002384639  0.000873  0.003688  0.023291  0.000378
  2  -1023.27290279  -0.0000295661  0.000591  0.002342  0.006584  0.000166
  3  -1023.27290763  -0.0000048405  0.000396  0.000914  0.011027  0.000154
  4  -1023.27291464  -0.0000070065  0.000101  0.000374  0.000914  0.000021
  5  -1023.27291464  -0.0000000007  0.000120  0.000205  0.000512  0.000014
  6  -1023.27291490  -0.0000002655  0.000022  0.000315  0.000730  0.000014
  7  -1023.27291495  -0.0000000421  0.000024  0.000760  0.001558  0.000032
  8  -1023.27291501  -0.0000000606  0.000029  0.001128  0.002162  0.000041
  9  -1023.27291507  -0.0000000619  0.000023  0.001131  0.002164  0.000037
 10  -1023.27291513  -0.0000000667  0.000024  0.001574  0.003007  0.000051
 11  -1023.27291521  -0.0000000712  0.000014  0.000769  0.001467  0.000025
 12  -1023.27291523  -0.0000000244  0.000008  0.000287  0.000546  0.000010
 13  -1023.27291523  -0.0000000045  0.000011  0.000126  0.000174  0.000003
 14  -1023.27291524  -0.0000000030  0.000003  0.000106  0.000160  0.000003
 15  -1023.27291524  -0.0000000013  0.000003  0.000441  0.000765  0.000015
 16  -1023.27291524  -0.0000000033  0.000005  0.000482  0.000920  0.000014
 17  -1023.27291524  -0.0000000005  0.000003  0.000315  0.000600  0.000009
                  ***Gradient check signals convergence***
              ***Rediagonalizing the Fockian in SOSCF/NRSCF***

               *****************************************************
               *                     SUCCESS                       *
               *           SCF CONVERGED AFTER  18 CYCLES          *
               *****************************************************

Old exchange energy                            =    -17.534652848 Eh
New exchange energy                            =    -17.534642343 Eh
Exchange energy change after final integration =      0.000010505 Eh
Total energy after final integration           =  -1023.272904737 Eh
Final COS-X integration done in                =     4.991 sec
Total Energy       :        -1023.27290474 Eh          -27844.67133 eV
  Last Energy change         ...   -8.3446e-11  Tolerance :   1.0000e-08
  Last MAX-Density change    ...    3.9968e-15  Tolerance :   1.0000e-07
             **** THE GBW FILE WAS UPDATED (Na2SO4_DFT.gbw) ****
             **** DENSITY Na2SO4_DFT.scfp WAS UPDATED ****
             **** ENERGY FILE WAS UPDATED (Na2SO4_DFT.en.tmp) ****
             **** THE GBW FILE WAS UPDATED (Na2SO4_DFT.gbw) ****
             **** DENSITY Na2SO4_DFT.scfp WAS UPDATED ****
Total SCF time: 0 days 0 hours 0 min 50 sec 

Maximum memory used throughout the entire SCF-calculation: 57.1 MB

-------------------------   --------------------
FINAL SINGLE POINT ENERGY     -1023.272904737319
-------------------------   --------------------

------------------------------------------------------------------------------
                         ORCA SCF GRADIENT CALCULATION
------------------------------------------------------------------------------

 ... reading COSX grid (gridx3)
Gradient of the Kohn-Sham DFT energy:
Kohn-Sham wavefunction type      ... RKS
Hartree-Fock exchange scaling    ...    0.200
Number of operators              ...    1
Number of atoms                  ...    7
Basis set dimensions             ...  104
Integral neglect threshold       ... 2.5e-11
Integral primitive cutoff        ... 2.5e-12
SHARK Integral package           ... ON

Nuc. rep. gradient       (SHARK) ... done (  0.0 sec)
HCore & Overlap gradient (SHARK) ... done (  0.1 sec)
RI-J gradient            (SHARK) ... done (  0.7 sec)
COSX-gradient                    ... done (  5.4 sec)
Exchange-correlation gradient    ... done

------------------
CARTESIAN GRADIENT
------------------

   1   O   :    0.001233581   -0.005999901    0.003147803
   2   S   :   -0.007602651   -0.001518097   -0.004849272
   3   O   :   -0.000661265   -0.006727083    0.006589155
   4   O   :    0.003123555    0.006163768    0.005755267
   5   O   :    0.003119266    0.007448427   -0.007104275
   6   Na  :    0.001685575    0.002432418   -0.005764565
   7   Na  :   -0.000410871   -0.001223710    0.001812286

Difference to translation invariance:
           :    0.0004871905    0.0005758233   -0.0004135997

Difference to rotation invariance:
           :    0.0066289179   -0.0002345687    0.0092466917

Norm of the cartesian gradient     ...    0.0215324747
RMS gradient                       ...    0.0046987712
MAX gradient                       ...    0.0076026508

-------
TIMINGS
-------

Total SCF gradient time            ...        9.342 sec

One electron gradient       ....       0.086 sec  (  0.9%)
RI-J Coulomb gradient       ....       0.693 sec  (  7.4%)
COSX gradient               ....       5.440 sec  ( 58.2%)
XC gradient                 ....       2.399 sec  ( 25.7%)
CPCM gradient               ....       0.211 sec  (  2.3%)
   A-Matrix (El+Nuc)        ....       0.013 sec  (  0.1%)
   Potential                ....       0.199 sec  (  2.1%)

Maximum memory used throughout the entire SCFGRAD-calculation: 45.4 MB
------------------------------------------------------------------------------
                         ORCA GEOMETRY RELAXATION STEP
------------------------------------------------------------------------------

Reading the OPT-File                    .... done
Getting information on internals        .... done
Copying old internal coords+grads       .... done
Making the new internal coordinates     .... (new redundants).... done
Validating the new internal coordinates .... (new redundants).... done
Calculating the B-matrix                .... done
Calculating the G,G- and P matrices     .... done
Transforming gradient to internals      .... done
Projecting the internal gradient        .... done
Number of atoms                         ....   7
Number of internal coordinates          ....  70
Current Energy                          .... -1023.272904737 Eh
Current gradient norm                   ....     0.021532475 Eh/bohr
Maximum allowed component of the step   ....  0.300
Current trust radius                    ....  0.300
Resetting Hessian after 50 BFGS Update Steps....
Build internal Hessian                  .... (Almloef) done
Updating Hessian with the last 5 steps  .... done
Forming the augmented Hessian           .... done
Diagonalizing the augmented Hessian     .... done
Last element of RFO vector              ....  0.788863312
Lowest eigenvalues of augmented Hessian:
 -0.002471366  0.000446183  0.003078733  0.010879871  0.014551206
Length of the computed step             ....  0.779055993
Warning: the length of the step is outside the trust region - taking restricted step instead
The input lambda is                     ....    -0.002471
   iter:   1  x=   -0.003879  g=  367.326711 f(x)=     0.516928
   iter:   2  x=   -0.005570  g=  124.969559 f(x)=     0.211366
   iter:   3  x=   -0.007084  g=   50.192420 f(x)=     0.076009
   iter:   4  x=   -0.007837  g=   26.814695 f(x)=     0.020170
   iter:   5  x=   -0.007959  g=   20.522297 f(x)=     0.002508
   iter:   6  x=   -0.007961  g=   19.693462 f(x)=     0.000051
   iter:   7  x=   -0.007961  g=   19.676351 f(x)=     0.000000
   iter:   8  x=   -0.007961  g=   19.676343 f(x)=     0.000000
The output lambda is                    ....    -0.007961 (8 iterations)
The final length of the internal step   ....  0.300000000
Converting the step to cartesian space:
 Initial RMS(Int)=    0.0358568583
Transforming coordinates:
 Iter   0:  RMS(Cart)=    0.0391001789 RMS(Int)=    0.0358841902
 Iter   1:  RMS(Cart)=    0.0000734988 RMS(Int)=    0.0000541110
 Iter   2:  RMS(Cart)=    0.0000004906 RMS(Int)=    0.0000003841
 Iter   3:  RMS(Cart)=    0.0000000041 RMS(Int)=    0.0000000027
done
Storing new coordinates                 .... done

                                .--------------------.
          ----------------------|Geometry convergence|-------------------------
          Item                value                   Tolerance       Converged
          ---------------------------------------------------------------------
          Energy change      -0.0004466778            0.0000050000      NO
          RMS gradient        0.0018855681            0.0001000000      NO
          MAX gradient        0.0073456954            0.0003000000      NO
          RMS step            0.0358568583            0.0020000000      NO
          MAX step            0.1517458280            0.0040000000      NO
          ........................................................
          Max(Bonds)      0.0803      Max(Angles)    1.01
          Max(Dihed)        0.75      Max(Improp)    0.00
          ---------------------------------------------------------------------

The optimization has not yet converged - more geometry cycles are needed


    ---------------------------------------------------------------------------
                         Redundant Internal Coordinates
                            (Angstroem and degrees)

        Definition                    Value    dE/dq     Step     New-Value
    ----------------------------------------------------------------------------
     1. B(S   1,O   0)                1.5172  0.000033  0.0001    1.5173   
     2. B(O   2,S   1)                1.5267  0.005679  0.0004    1.5271   
     3. B(O   3,S   1)                1.5121 -0.007346  0.0004    1.5125   
     4. B(O   4,S   1)                1.5300  0.006837 -0.0005    1.5296   
     5. B(Na  5,S   1)                4.1105  0.000639  0.0803    4.1908   
     6. B(Na  5,O   2)                3.3891 -0.004271  0.0726    3.4617   
     7. B(Na  5,O   0)                3.5260 -0.003141  0.0772    3.6032   
     8. B(Na  6,O   4)                4.8483 -0.003723  0.0447    4.8930   
     9. B(Na  6,O   3)                4.7992 -0.000533  0.0522    4.8514   
    10. B(Na  6,S   1)                5.5602  0.001642  0.0498    5.6100   
    11. A(S   1,O   0,Na  5)          101.65  0.001474    0.39    102.04   
    12. A(O   2,S   1,Na  6)          129.20  0.000912   -0.10    129.10   
    13. A(O   0,S   1,Na  5)           57.15 -0.001329    0.10     57.26   
    14. A(O   4,S   1,Na  6)           55.04 -0.001094   -0.14     54.89   
    15. A(O   2,S   1,O   4)          110.36  0.001582   -0.00    110.35   
    16. A(O   3,S   1,Na  5)          125.60  0.001102    0.03    125.63   
    17. A(O   0,S   1,O   4)          110.61  0.002045   -0.02    110.58   
    18. A(O   2,S   1,Na  5)           51.92 -0.001154   -0.08     51.84   
    19. A(O   3,S   1,O   4)          107.60 -0.002987    0.04    107.63   
    20. A(O   0,S   1,O   2)          109.08 -0.002487    0.03    109.10   
    21. A(O   2,S   1,O   3)          109.32  0.000846    0.04    109.36   
    22. A(O   4,S   1,Na  5)          126.69  0.001862   -0.07    126.62   
    23. A(O   3,S   1,Na  6)           52.78 -0.001880    0.17     52.95   
    24. A(O   0,S   1,O   3)          109.86  0.001034   -0.07    109.80   
    25. A(O   0,S   1,Na  6)          121.67  0.001510    0.08    121.75   
    26. A(S   1,O   2,Na  5)          107.31  0.000498    0.60    107.91   
    27. A(S   1,O   3,Na  6)          112.69  0.002901   -0.05    112.64   
    28. A(S   1,O   4,Na  6)          109.98  0.000557    0.31    110.29   
    29. A(S   1,Na  5,O   2)           20.77  0.000657   -0.52     20.25   
    30. A(O   0,Na  5,O   2)           41.96  0.000510   -1.01     40.95   
    31. A(O   0,Na  5,S   1)           21.19 -0.000145   -0.49     20.70   
    32. A(O   3,Na  6,O   4)           29.48 -0.000488   -0.29     29.19   
    33. A(S   1,Na  6,O   4)           14.99  0.000537   -0.17     14.82   
    34. A(S   1,Na  6,O   3)           14.53 -0.001021   -0.12     14.41   
    35. D(O   3,S   1,O   0,Na  5)    120.24  0.000702    0.07    120.31   
    36. D(O   4,S   1,O   0,Na  5)   -121.13 -0.001075    0.06   -121.06   
    37. D(Na  6,S   1,O   0,Na  5)    178.04 -0.000932    0.24    178.28   
    38. D(O   2,S   1,O   0,Na  5)      0.42  0.000568    0.05      0.48   
    39. D(Na  5,O   2,S   1,O   4)    121.25  0.001322   -0.08    121.17   
    40. D(Na  5,O   2,S   1,O   0)     -0.45 -0.000607   -0.06     -0.51   
    41. D(Na  5,O   2,S   1,Na  6)   -177.84  0.001032   -0.26   -178.10   
    42. D(Na  5,O   2,S   1,O   3)   -120.60 -0.000871   -0.02   -120.61   
    43. D(Na  6,O   3,S   1,Na  5)    178.47  0.000181    0.24    178.71   
    44. D(Na  6,O   3,S   1,O   4)     -5.22 -0.000141    0.20     -5.02   
    45. D(Na  6,O   3,S   1,O   2)   -125.09 -0.000770    0.16   -124.92   
    46. D(Na  6,O   3,S   1,O   0)    115.25  0.001127    0.15    115.40   
    47. D(Na  6,O   4,S   1,O   2)    124.28  0.000205   -0.11    124.17   
    48. D(Na  6,O   4,S   1,O   0)   -114.93 -0.000530   -0.09   -115.02   
    49. D(Na  6,O   4,S   1,O   3)      5.08  0.000078   -0.17      4.90   
    50. D(Na  6,O   4,S   1,Na  5)   -178.67 -0.000287   -0.21   -178.88   
    51. D(O   0,Na  5,O   2,S   1)      0.28  0.000373    0.04      0.31   
    52. D(O   2,Na  5,S   1,O   3)     87.48 -0.000517   -0.03     87.44   
    53. D(O   2,Na  5,S   1,O   0)    179.49 -0.000698   -0.07    179.42   
    54. D(O   0,Na  5,S   1,O   4)     92.38  0.000742    0.08     92.46   
    55. D(O   0,Na  5,S   1,O   3)    -92.01  0.000181    0.03    -91.98   
    56. D(O   2,Na  5,S   1,O   4)    -88.13  0.000044    0.02    -88.12   
    57. D(O   0,Na  5,S   1,O   2)   -179.49  0.000698    0.07   -179.42   
    58. D(O   2,Na  5,O   0,S   1)     -0.27 -0.000376   -0.04     -0.31   
    59. D(O   4,Na  6,S   1,O   3)   -173.92  0.000347   -0.21   -174.13   
    60. D(O   4,Na  6,S   1,O   2)    -88.70 -0.000771    0.06    -88.64   
    61. D(O   4,Na  6,S   1,O   0)     94.20  0.001141   -0.16     94.04   
    62. D(O   3,Na  6,S   1,O   4)    173.92 -0.000347    0.21    174.13   
    63. D(O   3,Na  6,S   1,O   2)     85.22 -0.001118    0.27     85.49   
    64. D(O   4,Na  6,O   3,S   1)      3.19  0.000341   -0.12      3.07   
    65. D(O   3,Na  6,S   1,O   0)    -91.88  0.000794    0.05    -91.83   
    66. D(O   4,Na  6,Na  5,O   2)    -83.28  0.000498   -0.53    -83.81   
    67. D(O   4,Na  6,Na  5,O   0)     92.22 -0.001055    0.01     92.23   
    68. D(O   3,Na  6,Na  5,O   2)     86.89  0.000699    0.21     87.10   
    69. D(O   3,Na  6,Na  5,O   0)    -97.61 -0.000855    0.75    -96.86   
    70. D(O   3,Na  6,O   4,S   1)     -3.10 -0.000010    0.11     -2.99   
    ----------------------------------------------------------------------------




    ----------------------------------------------------------------------------
                                  WARNING !!!
       The optimization did not converge but reached the maximum number of
       optimization cycles.
       Please check your results very carefully.
    ----------------------------------------------------------------------------



                            ***************************************
                            *     ORCA property calculations      *
                            ***************************************

                                    ---------------------
                                    Active property flags
                                    ---------------------
   (+) Dipole Moment


------------------------------------------------------------------------------
                       ORCA ELECTRIC PROPERTIES CALCULATION
------------------------------------------------------------------------------

Dipole Moment Calculation                       ... on
Quadrupole Moment Calculation                   ... off
Polarizability Calculation                      ... off
GBWName                                         ... Na2SO4_DFT.gbw
Electron density                                ... Na2SO4_DFT.scfp
The origin for moment calculation is the CENTER OF MASS  = ( 4.203006,  0.370698  0.008879)

-------------
DIPOLE MOMENT
-------------
                                X             Y             Z
Electronic contribution:     -3.41574     -11.14337      17.72808
Nuclear contribution   :     -0.09757      -0.43459       0.76403
                        -----------------------------------------
Total Dipole Moment    :     -3.51331     -11.57796      18.49212
                        -----------------------------------------
Magnitude (a.u.)       :     22.09866
Magnitude (Debye)      :     56.17034



--------------------
Rotational spectrum 
--------------------
 
Rotational constants in cm-1:     0.172743     0.013836     0.013826 
Rotational constants in MHz :  5178.693071   414.781627   414.480141 

 Dipole components along the rotational axes: 
x,y,z [a.u.] :    22.081487    -0.607883    -0.624006 
x,y,z [Debye]:    56.126679    -1.545115    -1.586098 

 

Timings for individual modules:

Sum of individual times         ...     4467.259 sec (=  74.454 min)
GTO integral calculation        ...       23.171 sec (=   0.386 min)   0.5 %
SCF iterations                  ...     3629.435 sec (=  60.491 min)  81.2 %
SCF Gradient evaluation         ...      810.027 sec (=  13.500 min)  18.1 %
Geometry relaxation             ...        4.627 sec (=   0.077 min)   0.1 %
                             ****ORCA TERMINATED NORMALLY****
TOTAL RUN TIME: 0 days 1 hours 14 minutes 43 seconds 715 msec
