
                                 *****************
                                 * O   R   C   A *
                                 *****************

                                            #,                                       
                                            ###                                      
                                            ####                                     
                                            #####                                    
                                            ######                                   
                                           ########,                                 
                                     ,,################,,,,,                         
                               ,,#################################,,                 
                          ,,##########################################,,             
                       ,#########################################, ''#####,          
                    ,#############################################,,   '####,        
                  ,##################################################,,,,####,       
                ,###########''''           ''''###############################       
              ,#####''   ,,,,##########,,,,          '''####'''          '####       
            ,##' ,,,,###########################,,,                        '##       
           ' ,,###''''                  '''############,,,                           
         ,,##''                                '''############,,,,        ,,,,,,###''
      ,#''                                            '''#######################'''  
     '                                                          ''''####''''         
             ,#######,   #######,   ,#######,      ##                                
            ,#'     '#,  ##    ##  ,#'     '#,    #''#        ######   ,####,        
            ##       ##  ##   ,#'  ##            #'  '#       #        #'  '#        
            ##       ##  #######   ##           ,######,      #####,   #    #        
            '#,     ,#'  ##    ##  '#,     ,#' ,#      #,         ##   #,  ,#        
             '#######'   ##     ##  '#######'  #'      '#     #####' # '####'        



                  #######################################################
                  #                        -***-                        #
                  #          Department of theory and spectroscopy      #
                  #    Directorship and core code : Frank Neese         #
                  #        Max Planck Institute fuer Kohlenforschung    #
                  #                Kaiser Wilhelm Platz 1               #
                  #                 D-45470 Muelheim/Ruhr               #
                  #                      Germany                        #
                  #                                                     #
                  #                  All rights reserved                #
                  #                        -***-                        #
                  #######################################################


                         Program Version 5.0.4 -  RELEASE  -


 With contributions from (in alphabetic order):
   Daniel Aravena         : Magnetic Suceptibility
   Michael Atanasov       : Ab Initio Ligand Field Theory (pilot matlab implementation)
   Alexander A. Auer      : GIAO ZORA, VPT2 properties, NMR spectrum
   Ute Becker             : Parallelization
   Giovanni Bistoni       : ED, misc. LED, open-shell LED, HFLD
   Martin Brehm           : Molecular dynamics
   Dmytro Bykov           : SCF Hessian
   Vijay G. Chilkuri      : MRCI spin determinant printing, contributions to CSF-ICE
   Dipayan Datta          : RHF DLPNO-CCSD density
   Achintya Kumar Dutta   : EOM-CC, STEOM-CC
   Dmitry Ganyushin       : Spin-Orbit,Spin-Spin,Magnetic field MRCI
   Miquel Garcia          : C-PCM and meta-GGA Hessian, CC/C-PCM, Gaussian charge scheme
   Yang Guo               : DLPNO-NEVPT2, F12-NEVPT2, CIM, IAO-localization
   Andreas Hansen         : Spin unrestricted coupled pair/coupled cluster methods
   Benjamin Helmich-Paris : MC-RPA, TRAH-SCF, COSX integrals
   Lee Huntington         : MR-EOM, pCC
   Robert Izsak           : Overlap fitted RIJCOSX, COSX-SCS-MP3, EOM
   Marcus Kettner         : VPT2
   Christian Kollmar      : KDIIS, OOCD, Brueckner-CCSD(T), CCSD density, CASPT2, CASPT2-K
   Simone Kossmann        : Meta GGA functionals, TD-DFT gradient, OOMP2, MP2 Hessian
   Martin Krupicka        : Initial AUTO-CI
   Lucas Lang             : DCDCAS
   Marvin Lechner         : AUTO-CI (C++ implementation), FIC-MRCC
   Dagmar Lenk            : GEPOL surface, SMD
   Dimitrios Liakos       : Extrapolation schemes; Compound Job, initial MDCI parallelization
   Dimitrios Manganas     : Further ROCIS development; embedding schemes
   Dimitrios Pantazis     : SARC Basis sets
   Anastasios Papadopoulos: AUTO-CI, single reference methods and gradients
   Taras Petrenko         : DFT Hessian,TD-DFT gradient, ASA, ECA, R-Raman, ABS, FL, XAS/XES, NRVS
   Peter Pinski           : DLPNO-MP2, DLPNO-MP2 Gradient
   Christoph Reimann      : Effective Core Potentials
   Marius Retegan         : Local ZFS, SOC
   Christoph Riplinger    : Optimizer, TS searches, QM/MM, DLPNO-CCSD(T), (RO)-DLPNO pert. Triples
   Tobias Risthaus        : Range-separated hybrids, TD-DFT gradient, RPA, STAB
   Michael Roemelt        : Original ROCIS implementation
   Masaaki Saitow         : Open-shell DLPNO-CCSD energy and density
   Barbara Sandhoefer     : DKH picture change effects
   Avijit Sen             : IP-ROCIS
   Kantharuban Sivalingam : CASSCF convergence, NEVPT2, FIC-MRCI
   Bernardo de Souza      : ESD, SOC TD-DFT
   Georgi Stoychev        : AutoAux, RI-MP2 NMR, DLPNO-MP2 response
   Willem Van den Heuvel  : Paramagnetic NMR
   Boris Wezisla          : Elementary symmetry handling
   Frank Wennmohs         : Technical directorship


 We gratefully acknowledge several colleagues who have allowed us to
 interface, adapt or use parts of their codes:
   Stefan Grimme, W. Hujo, H. Kruse, P. Pracht,  : VdW corrections, initial TS optimization,
                  C. Bannwarth, S. Ehlert          DFT functionals, gCP, sTDA/sTD-DF
   Ed Valeev, F. Pavosevic, A. Kumar             : LibInt (2-el integral package), F12 methods
   Garnet Chan, S. Sharma, J. Yang, R. Olivares  : DMRG
   Ulf Ekstrom                                   : XCFun DFT Library
   Mihaly Kallay                                 : mrcc  (arbitrary order and MRCC methods)
   Jiri Pittner, Ondrej Demel                    : Mk-CCSD
   Frank Weinhold                                : gennbo (NPA and NBO analysis)
   Christopher J. Cramer and Donald G. Truhlar   : smd solvation model
   Lars Goerigk                                  : TD-DFT with DH, B97 family of functionals
   V. Asgeirsson, H. Jonsson                     : NEB implementation
   FAccTs GmbH                                   : IRC, NEB, NEB-TS, DLPNO-Multilevel, CI-OPT
                                                   MM, QMMM, 2- and 3-layer-ONIOM, Crystal-QMMM,
                                                   LR-CPCM, SF, NACMEs, symmetry and pop. for TD-DFT,
                                                   nearIR, NL-DFT gradient (VV10), updates on ESD,
                                                   ML-optimized integration grids
   S Lehtola, MJT Oliveira, MAL Marques          : LibXC Library
   Liviu Ungur et al                             : ANISO software


 Your calculation uses the libint2 library for the computation of 2-el integrals
 For citations please refer to: http://libint.valeyev.net

 Your ORCA version has been built with support for libXC version: 5.1.0
 For citations please refer to: https://tddft.org/programs/libxc/

 This ORCA versions uses:
   CBLAS   interface :  Fast vector & matrix operations
   LAPACKE interface :  Fast linear algebra routines
   SCALAPACK package :  Parallel linear algebra routines
   Shared memory     :  Shared parallel matrices
   BLAS/LAPACK       :  OpenBLAS 0.3.15  USE64BITINT DYNAMIC_ARCH NO_AFFINITY SkylakeX SINGLE_THREADED
        Core in use  :  SkylakeX
   Copyright (c) 2011-2014, The OpenBLAS Project


================================================================================

----- Orbital basis set information -----
Your calculation utilizes the basis: def2-SVP
   F. Weigend and R. Ahlrichs, Phys. Chem. Chem. Phys. 7, 3297 (2005).

----- AuxJ basis set information -----
Your calculation utilizes the auxiliary basis: def2/J
   F. Weigend, Phys. Chem. Chem. Phys. 8, 1057 (2006).

================================================================================
                                        WARNINGS
                       Please study these warnings very carefully!
================================================================================


WARNING: Geometry Optimization
  ===> : Switching off AutoStart
         For restart on a previous wavefunction, please use MOREAD

INFO   : the flag for use of the SHARK integral package has been found!

================================================================================
                                       INPUT FILE
================================================================================
NAME = MgSO4_DFT.inp
|  1> ## avogadro generated ORCA input file 
|  2> # Advanced Mode
|  3> # 
|  4> ! B3LYP OPT def2-SVP NormalPrint defgrid2 NormalSCF 
|  5> 
|  6> ! CPCM
|  7> %cpcm
|  8> epsilon 69.0
|  9> refrac 1.34
| 10> end
| 11> 
| 12> %scf
| 13> 	MaxIter 125
| 14> 	CNVDIIS 1
| 15> 	CNVSOSCF 1 
| 16> end
| 17> 
| 18> * xyz -8 1
| 19>    O        1.50388        0.55326       -0.35153
| 20>    S        2.94455        0.21813       -0.16607
| 21>    O        2.63969       -0.96672        0.68564
| 22>    O        3.53155       -0.19455       -1.41369
| 23>    O        3.60491        1.23802        0.60543
| 24>   Mg        0.90656       -0.77403        0.61170
| 25> *
| 26> 
| 27> 
| 28>                          ****END OF INPUT****
================================================================================

                       *****************************
                       * Geometry Optimization Run *
                       *****************************

Geometry optimization settings:
Update method            Update   .... BFGS
Choice of coordinates    CoordSys .... Z-matrix Internals
Initial Hessian          InHess   .... Almoef's Model

Convergence Tolerances:
Energy Change            TolE     ....  5.0000e-06 Eh
Max. Gradient            TolMAXG  ....  3.0000e-04 Eh/bohr
RMS Gradient             TolRMSG  ....  1.0000e-04 Eh/bohr
Max. Displacement        TolMAXD  ....  4.0000e-03 bohr
RMS Displacement         TolRMSD  ....  2.0000e-03 bohr
Strict Convergence                ....  False
------------------------------------------------------------------------------
                        ORCA OPTIMIZATION COORDINATE SETUP
------------------------------------------------------------------------------

The optimization will be done in new redundant internal coordinates
Making redundant internal coordinates   ...  (new redundants) done
Evaluating the initial hessian          ...  (Almloef) done
Evaluating the coordinates              ...  done
Calculating the B-matrix                .... done
Calculating the G-matrix                .... done
Diagonalizing the G-matrix              .... done
The first mode is                       ....   24
The number of degrees of freedom        ....   12

    -----------------------------------------------------------------
                    Redundant Internal Coordinates


    -----------------------------------------------------------------
         Definition                    Initial Value    Approx d2E/dq
    -----------------------------------------------------------------
      1. B(S   1,O   0)                  1.4907         1.042211   
      2. B(O   2,S   1)                  1.4907         1.042234   
      3. B(O   3,S   1)                  1.4392         1.259140   
      4. B(O   4,S   1)                  1.4393         1.259086   
      5. B(Mg  5,S   1)                  2.3964         0.422660   
      6. B(Mg  5,O   2)                  1.7454         1.534692   
      7. B(Mg  5,O   0)                  1.7454         1.534747   
      8. A(S   1,O   0,Mg  5)           95.2282         0.670414   
      9. A(O   2,S   1,O   3)          110.5351         0.603557   
     10. A(O   0,S   1,Mg  5)           46.4938         0.547834   
     11. A(O   2,S   1,O   4)          110.5360         0.603552   
     12. A(O   3,S   1,O   4)          118.7328         0.626048   
     13. A(O   0,S   1,O   2)           92.9879         0.582000   
     14. A(O   0,S   1,O   4)          110.5362         0.603549   
     15. A(O   2,S   1,Mg  5)           46.4941         0.547837   
     16. A(O   3,S   1,Mg  5)          120.6296         0.567897   
     17. A(O   4,S   1,Mg  5)          120.6377         0.567893   
     18. A(O   0,S   1,O   3)          110.5347         0.603554   
     19. A(S   1,O   2,Mg  5)           95.2280         0.670412   
     20. A(S   1,Mg  5,O   2)           38.2779         0.630119   
     21. A(O   0,Mg  5,O   2)           76.5559         0.774681   
     22. A(O   0,Mg  5,S   1)           38.2781         0.630123   
     23. D(O   2,S   1,O   0,Mg  5)     -0.0043         0.026504   
     24. D(O   3,S   1,O   0,Mg  5)    113.2394         0.026504   
     25. D(O   4,S   1,O   0,Mg  5)   -113.2494         0.026504   
     26. D(Mg  5,O   2,S   1,O   3)   -113.2391         0.026505   
     27. D(Mg  5,O   2,S   1,O   4)    113.2495         0.026505   
     28. D(Mg  5,O   2,S   1,O   0)      0.0043         0.026505   
     29. D(O   2,Mg  5,O   0,S   1)      0.0038         0.010772   
     30. D(O   2,Mg  5,S   1,O   4)    -89.9971         0.001805   
     31. D(O   2,Mg  5,S   1,O   3)     90.0033         0.001805   
     32. D(O   2,Mg  5,S   1,O   0)   -179.9941         0.001805   
     33. D(O   0,Mg  5,S   1,O   4)     89.9970         0.001805   
     34. D(O   0,Mg  5,S   1,O   3)    -90.0026         0.001805   
     35. D(O   0,Mg  5,O   2,S   1)     -0.0038         0.010772   
     36. D(O   0,Mg  5,S   1,O   2)    179.9941         0.001805   
    -----------------------------------------------------------------

Number of atoms                         .... 6
Number of degrees of freedom            .... 36

         *************************************************************
         *                GEOMETRY OPTIMIZATION CYCLE   1            *
         *************************************************************
---------------------------------
CARTESIAN COORDINATES (ANGSTROEM)
---------------------------------
  O      1.503880    0.553260   -0.351530
  S      2.944550    0.218130   -0.166070
  O      2.639690   -0.966720    0.685640
  O      3.531550   -0.194550   -1.413690
  O      3.604910    1.238020    0.605430
  Mg     0.906560   -0.774030    0.611700

----------------------------
CARTESIAN COORDINATES (A.U.)
----------------------------
  NO LB      ZA    FRAG     MASS         X           Y           Z
   0 O     8.0000    0    15.999    2.841921    1.045510   -0.664295
   1 S    16.0000    0    32.060    5.564393    0.412206   -0.313827
   2 O     8.0000    0    15.999    4.988291   -1.826836    1.295672
   3 O     8.0000    0    15.999    6.673662   -0.367646   -2.671487
   4 O     8.0000    0    15.999    6.812293    2.339519    1.144097
   5 Mg   12.0000    0    24.305    1.713150   -1.462705    1.155945

--------------------------------
INTERNAL COORDINATES (ANGSTROEM)
--------------------------------
 O      0   0   0     0.000000000000     0.00000000     0.00000000
 S      1   0   0     1.490717135274     0.00000000     0.00000000
 O      2   1   0     1.490710926437    92.98791232     0.00000000
 O      2   1   3     1.439246138365   110.53473219   113.24369688
 O      2   1   3     1.439257861434   110.53616465   246.75492625
 Mg     1   2   3     1.745365852594    95.22816237     0.00000000

---------------------------
INTERNAL COORDINATES (A.U.)
---------------------------
 O      0   0   0     0.000000000000     0.00000000     0.00000000
 S      1   0   0     2.817047128812     0.00000000     0.00000000
 O      2   1   0     2.817035395811    92.98791232     0.00000000
 O      2   1   3     2.719781040815   110.53473219   113.24369688
 O      2   1   3     2.719803194204   110.53616465   246.75492625
 Mg     1   2   3     3.298263464900    95.22816237     0.00000000

---------------------
BASIS SET INFORMATION
---------------------
There are 3 groups of distinct atoms

 Group   1 Type O   : 7s4p1d contracted to 3s2p1d pattern {511/31/1}
 Group   2 Type S   : 10s7p1d contracted to 4s3p1d pattern {5311/511/1}
 Group   3 Type Mg  : 10s7p1d contracted to 4s3p1d pattern {5311/511/1}

Atom   0O    basis set group =>   1
Atom   1S    basis set group =>   2
Atom   2O    basis set group =>   1
Atom   3O    basis set group =>   1
Atom   4O    basis set group =>   1
Atom   5Mg   basis set group =>   3
---------------------------------
AUXILIARY/J BASIS SET INFORMATION
---------------------------------
There are 3 groups of distinct atoms

 Group   1 Type O   : 12s5p4d2f1g contracted to 6s4p3d1f1g pattern {711111/2111/211/2/1}
 Group   2 Type S   : 14s5p5d2f1g contracted to 8s4p3d1f1g pattern {71111111/2111/311/2/1}
 Group   3 Type Mg  : 14s5p5d2f1g contracted to 8s4p4d1f1g pattern {71111111/2111/2111/2/1}

Atom   0O    basis set group =>   1
Atom   1S    basis set group =>   2
Atom   2O    basis set group =>   1
Atom   3O    basis set group =>   1
Atom   4O    basis set group =>   1
Atom   5Mg   basis set group =>   3
------------------------------------------------------------------------------
                           ORCA GTO INTEGRAL CALCULATION
                           -- RI-GTO INTEGRALS CHOSEN --
------------------------------------------------------------------------------
------------------------------------------------------------------------------
                   ___                                                        
                  /   \      - P O W E R E D   B Y -                         
                 /     \                                                     
                 |  |  |   _    _      __       _____    __    __             
                 |  |  |  | |  | |    /  \     |  _  \  |  |  /  |          
                  \  \/   | |  | |   /    \    | | | |  |  | /  /          
                 / \  \   | |__| |  /  /\  \   | |_| |  |  |/  /          
                |  |  |   |  __  | /  /__\  \  |    /   |      \           
                |  |  |   | |  | | |   __   |  |    \   |  |\   \          
                \     /   | |  | | |  |  |  |  | |\  \  |  | \   \       
                 \___/    |_|  |_| |__|  |__|  |_| \__\ |__|  \__/        
                                                                              
                      - O R C A' S   B I G   F R I E N D -                    
                                      &                                       
                       - I N T E G R A L  F E E D E R -                       
                                                                              
 v1 FN, 2020, v2 2021                                                         
------------------------------------------------------------------------------


Reading SHARK input file MgSO4_DFT.SHARKINP.tmp ... SHARK General Contraction Test:  Segmented basis detected
   -> Pre-screening matrix *NOT* found on disk - recalculating with NShells=40
   -> Leaving CheckPreScreeningMatrix
ok
----------------------
SHARK INTEGRAL PACKAGE
----------------------

Number of atoms                             ...      6
Number of basis functions                   ...     92
Number of shells                            ...     40
Maximum angular momentum                    ...      2
Integral batch strategy                     ... SHARK/LIBINT Hybrid
RI-J (if used) integral strategy            ... SPLIT-RIJ (Revised 2003 algorithm where possible)
Printlevel                                  ...      2
Contraction scheme used                     ... SEGMENTED contraction
Coulomb Range Separation                    ... NOT USED
Exchange Range Separation                   ... NOT USED
Finite Nucleus Model                        ... NOT USED
Auxiliary Coulomb fitting basis             ... AVAILABLE
   # of basis functions in Aux-J            ...    303
   # of shells in Aux-J                     ...     95
   Maximum angular momentum in Aux-J        ...      4
Auxiliary J/K fitting basis                 ... NOT available
Auxiliary Correlation fitting basis         ... NOT available
Auxiliary 'external' fitting basis          ... NOT available
Integral threshold                          ...     2.500000e-11
Primitive cut-off                           ...     2.500000e-12
Primitive pair pre-selection threshold      ...     2.500000e-12

Calculating pre-screening integrals         ... done (  0.1 sec) Dimension = 40
Organizing shell pair data                  ... done (  0.0 sec)
Shell pair information
Total number of shell pairs                 ...       820
Shell pairs after pre-screening             ...       795
Total number of primitive shell pairs       ...      3668
Primitive shell pairs kept                  ...      2631
          la=0 lb=0:    190 shell pairs
          la=1 lb=0:    277 shell pairs
          la=1 lb=1:    105 shell pairs
          la=2 lb=0:    118 shell pairs
          la=2 lb=1:     84 shell pairs
          la=2 lb=2:     21 shell pairs

Calculating one electron integrals          ... done (  0.0 sec)
Calculating RI/J V-Matrix + Cholesky decomp.... done (  0.0 sec)
Calculating Nuclear repulsion               ... done (  0.0 sec) ENN=    401.387927468112 Eh

SHARK setup successfully completed in   0.3 seconds

Maximum memory used throughout the entire GTOINT-calculation: 12.2 MB
-------------------------------------------------------------------------------
                                 ORCA SCF
-------------------------------------------------------------------------------

------------
SCF SETTINGS
------------
Hamiltonian:
 Density Functional     Method          .... DFT(GTOs)
 Exchange Functional    Exchange        .... B88
   X-Alpha parameter    XAlpha          ....  0.666667
   Becke's b parameter  XBeta           ....  0.004200
 Correlation Functional Correlation     .... LYP
 LDA part of GGA corr.  LDAOpt          .... VWN-5
 Gradients option       PostSCFGGA      .... off
 Hybrid DFT is turned on
   Fraction HF Exchange ScalHFX         ....  0.200000
   Scaling of DF-GGA-X  ScalDFX         ....  0.720000
   Scaling of DF-GGA-C  ScalDFC         ....  0.810000
   Scaling of DF-LDA-C  ScalLDAC        ....  1.000000
   Perturbative correction              ....  0.000000
   Density functional embedding theory  .... OFF
   NL short-range parameter             ....  4.800000
 RI-approximation to the Coulomb term is turned on
   Number of AuxJ basis functions       .... 303
   RIJ-COSX (HFX calculated with COS-X)).... on


General Settings:
 Integral files         IntName         .... MgSO4_DFT
 Hartree-Fock type      HFTyp           .... RHF
 Total Charge           Charge          ....   -8
 Multiplicity           Mult            ....    1
 Number of Electrons    NEL             ....   68
 Basis Dimension        Dim             ....   92
 Nuclear Repulsion      ENuc            ....    401.3879274681 Eh

Convergence Acceleration:
 DIIS                   CNVDIIS         .... on
   Start iteration      DIISMaxIt       ....    12
   Startup error        DIISStart       ....  0.200000
   # of expansion vecs  DIISMaxEq       ....     5
   Bias factor          DIISBfac        ....   1.050
   Max. coefficient     DIISMaxC        ....  10.000
 Trust-Rad. Augm. Hess. CNVTRAH         .... auto
   Auto Start mean grad. ratio tolernc. ....  1.125000
   Auto Start start iteration           ....    20
   Auto Start num. interpolation iter.  ....    10
   Max. Number of Micro iterations      ....    16
   Max. Number of Macro iterations      .... Maxiter - #DIIS iter
   Number of Davidson start vectors     ....     2
   Converg. threshold I  (grad. norm)   ....   1.000e-05
   Converg. threshold II (energy diff.) ....   1.000e-08
   Grad. Scal. Fac. for Micro threshold ....   0.100
   Minimum threshold for Micro iter.    ....   0.010
   NR start threshold (gradient norm)   ....   0.001
   Initial trust radius                 ....   0.400
   Minimum AH scaling param. (alpha)    ....   1.000
   Maximum AH scaling param. (alpha)    .... 1000.000
   Orbital update algorithm             .... Taylor
   White noise on init. David. guess    .... on
   Maximum white noise                  ....   0.010
   Quad. conv. algorithm                .... NR
 SOSCF                  CNVSOSCF        .... on
   Start iteration      SOSCFMaxIt      ....   150
   Startup grad/error   SOSCFStart      ....  0.003300
 Level Shifting         CNVShift        .... on
   Level shift para.    LevelShift      ....    0.2500
   Turn off err/grad.   ShiftErr        ....    0.0010
 Zerner damping         CNVZerner       .... off
 Static damping         CNVDamp         .... on
   Fraction old density DampFac         ....    0.7000
   Max. Damping (<1)    DampMax         ....    0.9800
   Min. Damping (>=0)   DampMin         ....    0.0000
   Turn off err/grad.   DampErr         ....    0.1000
 Fernandez-Rico         CNVRico         .... off

SCF Procedure:
 Maximum # iterations   MaxIter         ....   125
 SCF integral mode      SCFMode         .... Direct
   Integral package                     .... SHARK and LIBINT hybrid scheme
 Reset frequency        DirectResetFreq ....    20
 Integral Threshold     Thresh          ....  2.500e-11 Eh
 Primitive CutOff       TCut            ....  2.500e-12 Eh

Convergence Tolerance:
 Convergence Check Mode ConvCheckMode   .... Total+1el-Energy
 Convergence forced     ConvForced      .... 0
 Energy Change          TolE            ....  1.000e-08 Eh
 1-El. energy change                    ....  1.000e-05 Eh
 Orbital Gradient       TolG            ....  1.000e-05
 Orbital Rotation angle TolX            ....  1.000e-05
 DIIS Error             TolErr          ....  5.000e-07


Diagonalization of the overlap matrix:
Smallest eigenvalue                        ... 4.796e-03
Time for diagonalization                   ...    0.002 sec
Threshold for overlap eigenvalues          ... 1.000e-08
Number of eigenvalues below threshold      ... 0
Time for construction of square roots      ...    0.004 sec
Total time needed                          ...    0.007 sec

SHARK General Contraction Test:  Segmented basis detected
   -> Pre-screening matrix found on disk - Trying to read with NShells=40
   -> Passing Pre-screening matrix on to SHARK ...ok
   -> Leaving CheckPreScreeningMatrix
----------------------
SHARK INTEGRAL PACKAGE
----------------------

Number of atoms                             ...      6
Number of basis functions                   ...     92
Number of shells                            ...     40
Maximum angular momentum                    ...      2
Integral batch strategy                     ... SHARK/LIBINT Hybrid
RI-J (if used) integral strategy            ... SPLIT-RIJ (Revised 2003 algorithm where possible)
Printlevel                                  ...      2
Contraction scheme used                     ... SEGMENTED contraction
Coulomb Range Separation                    ... NOT USED
Exchange Range Separation                   ... NOT USED
Finite Nucleus Model                        ... NOT USED
Auxiliary Coulomb fitting basis             ... AVAILABLE
   # of basis functions in Aux-J            ...    303
   # of shells in Aux-J                     ...     95
   Maximum angular momentum in Aux-J        ...      4
Auxiliary J/K fitting basis                 ... NOT available
Auxiliary Correlation fitting basis         ... NOT available
Auxiliary 'external' fitting basis          ... NOT available
Integral threshold                          ...     2.500000e-11
Primitive cut-off                           ...     2.500000e-12
Primitive pair pre-selection threshold      ...     2.500000e-12

Time for model grid setup =    0.105 sec

------------------------------
INITIAL GUESS: MODEL POTENTIAL
------------------------------
Loading Hartree-Fock densities                     ... done
Calculating cut-offs                               ... done
Initializing the effective Hamiltonian             ... done
Setting up the integral package (SHARK)            ... done
Starting the Coulomb interaction                   ...     -> Generating integrals - 
    -> L=0 0 :     0.005 sec done=     14047 skipped=        13 prim-skipped=         0
    -> L=1 0 :     0.009 sec done=     20274 skipped=       139 prim-skipped=         0
    -> L=1 1 :     0.005 sec done=      7770 skipped=         0 prim-skipped=         0
    -> L=2 0 :     0.004 sec done=      8614 skipped=       118 prim-skipped=         0
    -> L=2 1 :     0.004 sec done=      6216 skipped=         0 prim-skipped=         0
    -> L=2 2 :     0.002 sec done=      1554 skipped=         0 prim-skipped=         0
done (   0.0 sec)
Reading the grid                                   ... done
Mapping shells                                     ... done
Starting the XC term evaluation                    ... done (   0.2 sec)
  promolecular density results
     # of electrons  =     60.000148360
     EX              =    -74.065127745
     EC              =     -2.351561472
     EX+EC           =    -76.416689217
Transforming the Hamiltonian                       ... done (   0.0 sec)
Diagonalizing the Hamiltonian                      ... done (   0.0 sec)
Back transforming the eigenvectors                 ... done (   0.0 sec)
Now organizing SCF variables                       ... done
                      ------------------
                      INITIAL GUESS DONE (   0.3 sec)
                      ------------------
-------------------
DFT GRID GENERATION
-------------------

General Integration Accuracy     IntAcc      ... 4.388
Radial Grid Type                 RadialGrid  ... OptM3 with GC (2021)
Angular Grid (max. ang.)         AngularGrid ... 4 (Lebedev-302)
Angular grid pruning method      GridPruning ... 4 (adaptive)
Weight generation scheme         WeightScheme... Becke
Basis function cutoff            BFCut       ... 1.0000e-11
Integration weight cutoff        WCut        ... 1.0000e-14
Angular grids for H and He will be reduced by one unit
Partially contracted basis set               ... off
Rotationally invariant grid construction     ... off

Total number of grid points                  ...    38986
Total number of batches                      ...      612
Average number of points per batch           ...       63
Average number of grid points per atom       ...     6498
Time for grid setup =    0.510 sec

--------------------
COSX GRID GENERATION
--------------------

GRIDX 1
-------
General Integration Accuracy     IntAcc      ... 3.816
Radial Grid Type                 RadialGrid  ... OptM3 with GC (2021)
Angular Grid (max. ang.)         AngularGrid ... 1 (Lebedev-50)
Angular grid pruning method      GridPruning ... 4 (adaptive)
Weight generation scheme         WeightScheme... Becke
Basis function cutoff            BFCut       ... 1.0000e-11
Integration weight cutoff        WCut        ... 1.0000e-14
Angular grids for H and He will be reduced by one unit
Partially contracted basis set               ... on
Rotationally invariant grid construction     ... off

Total number of grid points                  ...     4744
Total number of batches                      ...       75
Average number of points per batch           ...       63
Average number of grid points per atom       ...      791
UseSFitting                                  ... on

GRIDX 2
-------
General Integration Accuracy     IntAcc      ... 4.020
Radial Grid Type                 RadialGrid  ... OptM3 with GC (2021)
Angular Grid (max. ang.)         AngularGrid ... 2 (Lebedev-110)
Angular grid pruning method      GridPruning ... 4 (adaptive)
Weight generation scheme         WeightScheme... Becke
Basis function cutoff            BFCut       ... 1.0000e-11
Integration weight cutoff        WCut        ... 1.0000e-14
Angular grids for H and He will be reduced by one unit
Partially contracted basis set               ... on
Rotationally invariant grid construction     ... off

Total number of grid points                  ...    11329
Total number of batches                      ...      181
Average number of points per batch           ...       62
Average number of grid points per atom       ...     1888
UseSFitting                                  ... on

GRIDX 3
-------
General Integration Accuracy     IntAcc      ... 4.338
Radial Grid Type                 RadialGrid  ... OptM3 with GC (2021)
Angular Grid (max. ang.)         AngularGrid ... 3 (Lebedev-194)
Angular grid pruning method      GridPruning ... 4 (adaptive)
Weight generation scheme         WeightScheme... Becke
Basis function cutoff            BFCut       ... 1.0000e-11
Integration weight cutoff        WCut        ... 1.0000e-14
Angular grids for H and He will be reduced by one unit
Partially contracted basis set               ... on
Rotationally invariant grid construction     ... off

Total number of grid points                  ...    26404
Total number of batches                      ...      416
Average number of points per batch           ...       63
Average number of grid points per atom       ...     4401
UseSFitting                                  ... on

Time for X-Grid setup             =    0.531 sec


--------------------
CPCM SOLVATION MODEL
--------------------
CPCM parameters:
  Epsilon                                         ...      69.0000
  Refrac                                          ...       1.3400
  Rsolv                                           ...       1.3000
  Surface type                                    ... GAUSSIAN VDW
  Epsilon function type                           ...         CPCM
Radii:
 Radius for O  used is    3.4469 Bohr (=   1.8240 Ang.)
 Radius for S  used is    4.0818 Bohr (=   2.1600 Ang.)
 Radius for Mg used is    3.9231 Bohr (=   2.0760 Ang.)
Calculating surface                               ...        done! (  0.0s)
GEPOL surface points                              ...          413
GEPOL Volume                                      ...     681.1069
GEPOL Surface-area                                ...     416.9340
Calculating surface distance matrix               ...        done! (  0.0s)
Performing Cholesky decomposition & store         ...        done! (  0.0s)
Overall time for CPCM initialization              ...                 0.0s
--------------
SCF ITERATIONS
--------------
               ***  Starting incremental Fock matrix formation  ***
==>> SHARK/AuxDens: NDens=1 Thresh =     2.500000e-11 TCut=    2.500000e-12 Lmax=2 LmaxAux=4
    -> Making Hermite density - ok     0.002 sec
    -> Making Aux-basis density - (lmax=2)
    -> L=0 0:    0.006 sec done=     17765 ( 98.4%) skipped=       285 
    -> L=1 0:    0.012 sec done=     26117 ( 99.3%) skipped=       182 
    -> L=1 1:    0.009 sec done=      9975 (100.0%) skipped=         0 
    -> L=2 0:    0.005 sec done=     10203 ( 91.0%) skipped=      1007 
    -> L=2 1:    0.007 sec done=      7980 (100.0%) skipped=         0 
    -> L=2 2:    0.002 sec done=      1995 (100.0%) skipped=         0 
    -> Aux basis density formed in    0.0 sec
    -> Solving linear equations - ok (   0.0 sec)
        Auxbasis Hermite Density:
        P|s>                     ...  0.000
        P|p>                     ...  0.000
        P|d>                     ...  0.000
        P|f>                     ...  0.000
        P|g>                     ...  0.000
        Building the Coulomb matrix: 
        J|ss>                          ... done (  0.0 sec) ndone=   110082 nskipped1=       25 nskipped2=     2538
        J|ps>                          ... done (  0.0 sec) ndone=   142156 nskipped1=      564 nskipped2=     8166
        J|pp>                          ... done (  0.0 sec) ndone=    59098 nskipped1=        0 nskipped2=     1802
        J|ds>                          ... done (  0.0 sec) ndone=    37102 nskipped1=      202 nskipped2=     3734
        J|dp>                          ... done (  0.0 sec) ndone=    25562 nskipped1=        0 nskipped2=      238
        J|dd>                          ... done (  0.0 sec) ndone=     3150 nskipped1=        0 nskipped2=        0
        Coulomb matrix built in   0.0 sec

        Total time for Split-RI-J                ...    0.121 sec
          (0) Prelude                            ...    0.000 sec
          (1) Hermite density                    ...    0.000 sec
          (2) Aux basis density                  ...    0.000 sec (inner=  0.0)
          (3) Linear equation solution           ...    0.000 sec
          (4) J-Matrix construction              ...    0.033 sec (inner=  0.0)
        ---------------------------------------------------------

                         ----------------------------
                         !        ITERATION     0   !
                         ----------------------------
   Total Energy        :    -897.557991128599 Eh
   Energy Change       :    -897.557991128599 Eh
   MAX-DP              :       0.826998714986
   RMS-DP              :       0.018779344779
   Actual Damping      :       0.7000
   Actual Level Shift  :       0.2500 Eh
   Int. Num. El.       :    67.99462391 (UP=   33.99731195 DN=   33.99731195)
   Exchange            :   -61.78666889
   Correlation         :    -3.02461805

==>> SHARK/AuxDens: NDens=1 Thresh =     2.500000e-11 TCut=    2.500000e-12 Lmax=2 LmaxAux=4
    -> Making Hermite density - ok     0.002 sec
    -> Making Aux-basis density - (lmax=2)
    -> L=0 0:    0.006 sec done=     17954 ( 99.5%) skipped=        96 
    -> L=1 0:    0.013 sec done=     26056 ( 99.1%) skipped=       243 
    -> L=1 1:    0.051 sec done=      9975 (100.0%) skipped=         0 
    -> L=2 0:    0.005 sec done=     10073 ( 89.9%) skipped=      1137 
    -> L=2 1:    0.006 sec done=      7970 ( 99.9%) skipped=        10 
    -> L=2 2:    0.002 sec done=      1995 (100.0%) skipped=         0 
    -> Aux basis density formed in    0.1 sec
    -> Solving linear equations - ok (   0.0 sec)
        Auxbasis Hermite Density:
        P|s>                     ...  0.000
        P|p>                     ...  0.000
        P|d>                     ...  0.000
        P|f>                     ...  0.000
        P|g>                     ...  0.000
        Building the Coulomb matrix: 
        J|ss>                          ... done (  0.0 sec) ndone=   109767 nskipped1=      259 nskipped2=     2449
        J|ps>                          ... done (  0.0 sec) ndone=   141290 nskipped1=     1496 nskipped2=     7688
        J|pp>                          ... done (  0.0 sec) ndone=    59098 nskipped1=        0 nskipped2=     1802
        J|ds>                          ... done (  0.0 sec) ndone=    35958 nskipped1=     1434 nskipped2=     3020
        J|dp>                          ... done (  0.0 sec) ndone=    25562 nskipped1=        0 nskipped2=      238
        J|dd>                          ... done (  0.0 sec) ndone=     3150 nskipped1=        0 nskipped2=        0
        Coulomb matrix built in   0.0 sec

        Total time for Split-RI-J                ...    0.120 sec
          (0) Prelude                            ...    0.000 sec
          (1) Hermite density                    ...    0.000 sec
          (2) Aux basis density                  ...    0.000 sec (inner=  0.0)
          (3) Linear equation solution           ...    0.000 sec
          (4) J-Matrix construction              ...    0.033 sec (inner=  0.0)
        ---------------------------------------------------------

                         ----------------------------
                         !        ITERATION     1   !
                         ----------------------------
   Total Energy        :    -897.982805677315 Eh
   Energy Change       :      -0.424814548716 Eh
   MAX-DP              :       0.786683145979
   RMS-DP              :       0.018268996833
   Actual Damping      :       0.7000
   Actual Level Shift  :       0.2500 Eh
   Int. Num. El.       :    67.99228461 (UP=   33.99614230 DN=   33.99614230)
   Exchange            :   -60.97942735
   Correlation         :    -2.99715366

==>> SHARK/AuxDens: NDens=1 Thresh =     2.500000e-11 TCut=    2.500000e-12 Lmax=2 LmaxAux=4
    -> Making Hermite density - ok     0.042 sec
    -> Making Aux-basis density - (lmax=2)
    -> L=0 0:    0.009 sec done=     17953 ( 99.5%) skipped=        97 
    -> L=1 0:    0.016 sec done=     26023 ( 99.0%) skipped=       276 
    -> L=1 1:    0.010 sec done=      9975 (100.0%) skipped=         0 
    -> L=2 0:    0.007 sec done=     10068 ( 89.8%) skipped=      1142 
    -> L=2 1:    0.008 sec done=      7970 ( 99.9%) skipped=        10 
    -> L=2 2:    0.002 sec done=      1995 (100.0%) skipped=         0 
    -> Aux basis density formed in    0.1 sec
    -> Solving linear equations - ok (   0.0 sec)
        Auxbasis Hermite Density:
        P|s>                     ...  0.000
        P|p>                     ...  0.000
        P|d>                     ...  0.000
        P|f>                     ...  0.000
        P|g>                     ...  0.000
        Building the Coulomb matrix: 
        J|ss>                          ... done (  0.0 sec) ndone=   109705 nskipped1=      314 nskipped2=     2448
        J|ps>                          ... done (  0.0 sec) ndone=   140971 nskipped1=     1774 nskipped2=     7531
        J|pp>                          ... done (  0.0 sec) ndone=    59098 nskipped1=        0 nskipped2=     1802
        J|ds>                          ... done (  0.0 sec) ndone=    35699 nskipped1=     1645 nskipped2=     2678
        J|dp>                          ... done (  0.0 sec) ndone=    25562 nskipped1=        0 nskipped2=      238
        J|dd>                          ... done (  0.0 sec) ndone=     3150 nskipped1=        0 nskipped2=        0
        Coulomb matrix built in   0.1 sec

        Total time for Split-RI-J                ...    0.171 sec
          (0) Prelude                            ...    0.000 sec
          (1) Hermite density                    ...    0.000 sec
          (2) Aux basis density                  ...    0.000 sec (inner=  0.0)
          (3) Linear equation solution           ...    0.000 sec
          (4) J-Matrix construction              ...    0.075 sec (inner=  0.1)
        ---------------------------------------------------------
                               ***Turning on DIIS***

                         ----------------------------
                         !        ITERATION     2   !
                         ----------------------------
   Total Energy        :    -898.152113454254 Eh
   Energy Change       :      -0.169307776939 Eh
   MAX-DP              :       1.871126610476
   RMS-DP              :       0.045439752846
   Actual Damping      :       0.0000
   Actual Level Shift  :       0.2500 Eh
   Int. Num. El.       :    67.99002698 (UP=   33.99501349 DN=   33.99501349)
   Exchange            :   -60.51767974
   Correlation         :    -2.97879401
   DIIS-Error          :       0.053545440624

==>> SHARK/AuxDens: NDens=1 Thresh =     2.500000e-11 TCut=    2.500000e-12 Lmax=2 LmaxAux=4
    -> Making Hermite density - ok     0.002 sec
    -> Making Aux-basis density - (lmax=2)
    -> L=0 0:    0.006 sec done=     17954 ( 99.5%) skipped=        96 
    -> L=1 0:    0.063 sec done=     26112 ( 99.3%) skipped=       187 
    -> L=1 1:    0.010 sec done=      9975 (100.0%) skipped=         0 
    -> L=2 0:    0.005 sec done=     10076 ( 89.9%) skipped=      1134 
    -> L=2 1:    0.008 sec done=      7978 (100.0%) skipped=         2 
    -> L=2 2:    0.002 sec done=      1995 (100.0%) skipped=         0 
    -> Aux basis density formed in    0.1 sec
    -> Solving linear equations - ok (   0.0 sec)
        Auxbasis Hermite Density:
        P|s>                     ...  0.000
        P|p>                     ...  0.000
        P|d>                     ...  0.000
        P|f>                     ...  0.000
        P|g>                     ...  0.000
        Building the Coulomb matrix: 
        J|ss>                          ... done (  0.0 sec) ndone=   109773 nskipped1=      218 nskipped2=     2425
        J|ps>                          ... done (  0.0 sec) ndone=   141518 nskipped1=     1208 nskipped2=     7434
        J|pp>                          ... done (  0.0 sec) ndone=    59098 nskipped1=        0 nskipped2=     1802
        J|ds>                          ... done (  0.0 sec) ndone=    36311 nskipped1=     1053 nskipped2=     2822
        J|dp>                          ... done (  0.0 sec) ndone=    25562 nskipped1=        0 nskipped2=      238
        J|dd>                          ... done (  0.0 sec) ndone=     3150 nskipped1=        0 nskipped2=        0
        Coulomb matrix built in   0.1 sec

        Total time for Split-RI-J                ...    0.175 sec
          (0) Prelude                            ...    0.000 sec
          (1) Hermite density                    ...    0.000 sec
          (2) Aux basis density                  ...    0.000 sec (inner=  0.0)
          (3) Linear equation solution           ...    0.000 sec
          (4) J-Matrix construction              ...    0.076 sec (inner=  0.1)
        ---------------------------------------------------------

                         ----------------------------
                         !        ITERATION     3   !
                         ----------------------------
   Total Energy        :    -898.427999296558 Eh
   Energy Change       :      -0.275885842304 Eh
   MAX-DP              :       0.027443302744
   RMS-DP              :       0.001234509207
   Actual Damping      :       0.7000
   Actual Level Shift  :       0.2500 Eh
   Int. Num. El.       :    67.98469957 (UP=   33.99234978 DN=   33.99234978)
   Exchange            :   -59.95765824
   Correlation         :    -2.94952622
   DIIS-Error          :       0.110394046025
   DIIS coefficients:
      0.71355   0.28645

==>> SHARK/AuxDens: NDens=1 Thresh =     2.500000e-11 TCut=    2.500000e-12 Lmax=2 LmaxAux=4
    -> Making Hermite density - ok     0.002 sec
    -> Making Aux-basis density - (lmax=2)
    -> L=0 0:    0.005 sec done=     16901 ( 93.6%) skipped=      1149 
    -> L=1 0:    0.011 sec done=     24847 ( 94.5%) skipped=      1452 
    -> L=1 1:    0.049 sec done=      9969 ( 99.9%) skipped=         6 
    -> L=2 0:    0.005 sec done=      9914 ( 88.4%) skipped=      1296 
    -> L=2 1:    0.007 sec done=      7795 ( 97.7%) skipped=       185 
    -> L=2 2:    0.002 sec done=      1995 (100.0%) skipped=         0 
    -> Aux basis density formed in    0.1 sec
    -> Solving linear equations - ok (   0.0 sec)
        Auxbasis Hermite Density:
        P|s>                     ...  0.000
        P|p>                     ...  0.000
        P|d>                     ...  0.000
        P|f>                     ...  0.000
        P|g>                     ...  0.000
        Building the Coulomb matrix: 
        J|ss>                          ... done (  0.0 sec) ndone=   108181 nskipped1=     1388 nskipped2=     2262
        J|ps>                          ... done (  0.0 sec) ndone=   138628 nskipped1=     3637 nskipped2=     5794
        J|pp>                          ... done (  0.0 sec) ndone=    59011 nskipped1=       72 nskipped2=     1789
        J|ds>                          ... done (  0.0 sec) ndone=    33938 nskipped1=     3544 nskipped2=      750
        J|dp>                          ... done (  0.0 sec) ndone=    25554 nskipped1=        6 nskipped2=      238
        J|dd>                          ... done (  0.0 sec) ndone=     3150 nskipped1=        0 nskipped2=        0
        Coulomb matrix built in   0.0 sec

        Total time for Split-RI-J                ...    0.116 sec
          (0) Prelude                            ...    0.000 sec
          (1) Hermite density                    ...    0.000 sec
          (2) Aux basis density                  ...    0.000 sec (inner=  0.0)
          (3) Linear equation solution           ...    0.000 sec
          (4) J-Matrix construction              ...    0.032 sec (inner=  0.0)
        ---------------------------------------------------------

                         ----------------------------
                         !        ITERATION     4   !
                         ----------------------------
   Total Energy        :    -898.446296166662 Eh
   Energy Change       :      -0.018296870104 Eh
   MAX-DP              :       0.127142895909
   RMS-DP              :       0.004758359840
   Actual Damping      :       0.0000
   Actual Level Shift  :       0.2500 Eh
   Int. Num. El.       :    67.98480152 (UP=   33.99240076 DN=   33.99240076)
   Exchange            :   -60.02929760
   Correlation         :    -2.95181841
   DIIS-Error          :       0.088669549693
   DIIS coefficients:
      0.56333  -0.43783   0.87450

==>> SHARK/AuxDens: NDens=1 Thresh =     2.500000e-11 TCut=    2.500000e-12 Lmax=2 LmaxAux=4
    -> Making Hermite density - ok     0.003 sec
    -> Making Aux-basis density - (lmax=2)
    -> L=0 0:    0.006 sec done=     17269 ( 95.7%) skipped=       781 
    -> L=1 0:    0.011 sec done=     25155 ( 95.7%) skipped=      1144 
    -> L=1 1:    0.009 sec done=      9975 (100.0%) skipped=         0 
    -> L=2 0:    0.056 sec done=     10034 ( 89.5%) skipped=      1176 
    -> L=2 1:    0.011 sec done=      7865 ( 98.6%) skipped=       115 
    -> L=2 2:    0.002 sec done=      1995 (100.0%) skipped=         0 
    -> Aux basis density formed in    0.1 sec
    -> Solving linear equations - ok (   0.0 sec)
        Auxbasis Hermite Density:
        P|s>                     ...  0.000
        P|p>                     ...  0.000
        P|d>                     ...  0.000
        P|f>                     ...  0.000
        P|g>                     ...  0.000
        Building the Coulomb matrix: 
        J|ss>                          ... done (  0.0 sec) ndone=   109393 nskipped1=      456 nskipped2=     2342
        J|ps>                          ... done (  0.0 sec) ndone=   140010 nskipped1=     2435 nskipped2=     6702
        J|pp>                          ... done (  0.0 sec) ndone=    59086 nskipped1=        8 nskipped2=     1798
        J|ds>                          ... done (  0.0 sec) ndone=    35008 nskipped1=     2266 nskipped2=     1708
        J|dp>                          ... done (  0.1 sec) ndone=    25558 nskipped1=        2 nskipped2=      238
        J|dd>                          ... done (  0.0 sec) ndone=     3150 nskipped1=        0 nskipped2=        0
        Coulomb matrix built in   0.1 sec

        Total time for Split-RI-J                ...    0.187 sec
          (0) Prelude                            ...    0.000 sec
          (1) Hermite density                    ...    0.000 sec
          (2) Aux basis density                  ...    0.000 sec (inner=  0.0)
          (3) Linear equation solution           ...    0.000 sec
          (4) J-Matrix construction              ...    0.087 sec (inner=  0.1)
        ---------------------------------------------------------

                         ----------------------------
                         !        ITERATION     5   !
                         ----------------------------
   Total Energy        :    -898.485510056536 Eh
   Energy Change       :      -0.039213889873 Eh
   MAX-DP              :       0.096161428084
   RMS-DP              :       0.002853404401
   Actual Damping      :       0.0000
   Actual Level Shift  :       0.2500 Eh
   Int. Num. El.       :    67.98528125 (UP=   33.99264062 DN=   33.99264062)
   Exchange            :   -60.26486824
   Correlation         :    -2.95978304
   DIIS-Error          :       0.018281458246
   DIIS coefficients:
      0.08794  -0.00412  -0.06766   0.98384

==>> SHARK/AuxDens: NDens=1 Thresh =     2.500000e-11 TCut=    2.500000e-12 Lmax=2 LmaxAux=4
    -> Making Hermite density - ok     0.002 sec
    -> Making Aux-basis density - (lmax=2)
    -> L=0 0:    0.006 sec done=     17151 ( 95.0%) skipped=       899 
    -> L=1 0:    0.013 sec done=     24989 ( 95.0%) skipped=      1310 
    -> L=1 1:    0.009 sec done=      9973 (100.0%) skipped=         2 
    -> L=2 0:    0.005 sec done=      9996 ( 89.2%) skipped=      1214 
    -> L=2 1:    0.058 sec done=      7828 ( 98.1%) skipped=       152 
    -> L=2 2:    0.002 sec done=      1995 (100.0%) skipped=         0 
    -> Aux basis density formed in    0.1 sec
    -> Solving linear equations - ok (   0.0 sec)
        Auxbasis Hermite Density:
        P|s>                     ...  0.000
        P|p>                     ...  0.000
        P|d>                     ...  0.000
        P|f>                     ...  0.000
        P|g>                     ...  0.000
        Building the Coulomb matrix: 
        J|ss>                          ... done (  0.0 sec) ndone=   108939 nskipped1=      756 nskipped2=     2218
        J|ps>                          ... done (  0.0 sec) ndone=   138974 nskipped1=     3265 nskipped2=     5879
        J|pp>                          ... done (  0.0 sec) ndone=    59066 nskipped1=       24 nskipped2=     1754
        J|ds>                          ... done (  0.0 sec) ndone=    34239 nskipped1=     3149 nskipped2=      938
        J|dp>                          ... done (  0.0 sec) ndone=    25560 nskipped1=        2 nskipped2=      238
        J|dd>                          ... done (  0.0 sec) ndone=     3150 nskipped1=        0 nskipped2=        0
        Coulomb matrix built in   0.0 sec

        Total time for Split-RI-J                ...    0.129 sec
          (0) Prelude                            ...    0.000 sec
          (1) Hermite density                    ...    0.000 sec
          (2) Aux basis density                  ...    0.000 sec (inner=  0.0)
          (3) Linear equation solution           ...    0.000 sec
          (4) J-Matrix construction              ...    0.033 sec (inner=  0.0)
        ---------------------------------------------------------

                         ----------------------------
                         !        ITERATION     6   !
                         ----------------------------
   Total Energy        :    -898.488585220237 Eh
   Energy Change       :      -0.003075163702 Eh
   MAX-DP              :       0.022949112915
   RMS-DP              :       0.001049381370
   Actual Damping      :       0.0000
   Actual Level Shift  :       0.2500 Eh
   Int. Num. El.       :    67.98565323 (UP=   33.99282662 DN=   33.99282662)
   Exchange            :   -60.30856438
   Correlation         :    -2.96228617
   DIIS-Error          :       0.009211448612
   DIIS coefficients:
      0.02106  -0.03027  -0.03361   0.31104   0.73178

==>> SHARK/AuxDens: NDens=1 Thresh =     2.500000e-11 TCut=    2.500000e-12 Lmax=2 LmaxAux=4
    -> Making Hermite density - ok     0.002 sec
    -> Making Aux-basis density - (lmax=2)
    -> L=0 0:    0.006 sec done=     17503 ( 97.0%) skipped=       547 
    -> L=1 0:    0.011 sec done=     24845 ( 94.5%) skipped=      1454 
    -> L=1 1:    0.008 sec done=      9962 ( 99.9%) skipped=        13 
    -> L=2 0:    0.005 sec done=      9938 ( 88.7%) skipped=      1272 
    -> L=2 1:    0.058 sec done=      7790 ( 97.6%) skipped=       190 
    -> L=2 2:    0.002 sec done=      1995 (100.0%) skipped=         0 
    -> Aux basis density formed in    0.1 sec
    -> Solving linear equations - ok (   0.0 sec)
        Auxbasis Hermite Density:
        P|s>                     ...  0.000
        P|p>                     ...  0.000
        P|d>                     ...  0.000
        P|f>                     ...  0.000
        P|g>                     ...  0.000
        Building the Coulomb matrix: 
        J|ss>                          ... done (  0.0 sec) ndone=   107387 nskipped1=     1808 nskipped2=     2164
        J|ps>                          ... done (  0.0 sec) ndone=   138080 nskipped1=     4176 nskipped2=     5486
        J|pp>                          ... done (  0.0 sec) ndone=    58988 nskipped1=       88 nskipped2=     1744
        J|ds>                          ... done (  0.0 sec) ndone=    33742 nskipped1=     3882 nskipped2=      616
        J|dp>                          ... done (  0.0 sec) ndone=    25550 nskipped1=       10 nskipped2=      238
        J|dd>                          ... done (  0.0 sec) ndone=     3150 nskipped1=        0 nskipped2=        0
        Coulomb matrix built in   0.0 sec

        Total time for Split-RI-J                ...    0.125 sec
          (0) Prelude                            ...    0.000 sec
          (1) Hermite density                    ...    0.000 sec
          (2) Aux basis density                  ...    0.000 sec (inner=  0.0)
          (3) Linear equation solution           ...    0.000 sec
          (4) J-Matrix construction              ...    0.032 sec (inner=  0.0)
        ---------------------------------------------------------
                      *** Initiating the SOSCF procedure ***
                           *** Shutting down DIIS ***
                      *** Re-Reading the Fockian *** 
                      *** Removing any level shift *** 

                         ----------------------------
                         !        ITERATION     7   !
                         ----------------------------
   Total Energy        :    -898.489145381816 Eh
   Energy Change       :      -0.000560161579 Eh
   MAX-DP              :       0.024910061774
   RMS-DP              :       0.000736728595
   Orbital gradient    :       0.002645119239
   Orbital Rotation    :       0.002645119239
   Actual Damping      :       0.0000
   Int. Num. El.       :    67.98576229 (UP=   33.99288114 DN=   33.99288114)
   Exchange            :   -60.31615458
   Correlation         :    -2.96274359

               *** Restarting incremental Fock matrix formation ***
==>> SHARK/AuxDens: NDens=1 Thresh =     2.500000e-11 TCut=    2.500000e-12 Lmax=2 LmaxAux=4
    -> Making Hermite density - ok     0.002 sec
    -> Making Aux-basis density - (lmax=2)
    -> L=0 0:    0.006 sec done=     17958 ( 99.5%) skipped=        92 
    -> L=1 0:    0.013 sec done=     26043 ( 99.0%) skipped=       256 
    -> L=1 1:    0.009 sec done=      9975 (100.0%) skipped=         0 
    -> L=2 0:    0.056 sec done=     10130 ( 90.4%) skipped=      1080 
    -> L=2 1:    0.007 sec done=      7980 (100.0%) skipped=         0 
    -> L=2 2:    0.002 sec done=      1995 (100.0%) skipped=         0 
    -> Aux basis density formed in    0.1 sec
    -> Solving linear equations - ok (   0.0 sec)
        Auxbasis Hermite Density:
        P|s>                     ...  0.000
        P|p>                     ...  0.000
        P|d>                     ...  0.000
        P|f>                     ...  0.000
        P|g>                     ...  0.000
        Building the Coulomb matrix: 
        J|ss>                          ... done (  0.0 sec) ndone=   110070 nskipped1=       40 nskipped2=     2535
        J|ps>                          ... done (  0.0 sec) ndone=   142152 nskipped1=      578 nskipped2=     8156
        J|pp>                          ... done (  0.0 sec) ndone=    59098 nskipped1=        0 nskipped2=     1802
        J|ds>                          ... done (  0.0 sec) ndone=    37084 nskipped1=      256 nskipped2=     3708
        J|dp>                          ... done (  0.0 sec) ndone=    25562 nskipped1=        0 nskipped2=      238
        J|dd>                          ... done (  0.0 sec) ndone=     3150 nskipped1=        0 nskipped2=        0
        Coulomb matrix built in   0.0 sec

        Total time for Split-RI-J                ...    0.132 sec
          (0) Prelude                            ...    0.000 sec
          (1) Hermite density                    ...    0.000 sec
          (2) Aux basis density                  ...    0.000 sec (inner=  0.0)
          (3) Linear equation solution           ...    0.000 sec
          (4) J-Matrix construction              ...    0.034 sec (inner=  0.0)
        ---------------------------------------------------------

                         ----------------------------
                         !        ITERATION     8   !
                         ----------------------------
   Total Energy        :    -898.489227388826 Eh
   Energy Change       :      -0.000082007010 Eh
   MAX-DP              :       0.038565026418
   RMS-DP              :       0.001127104920
   Orbital gradient    :       0.001757708820
   Orbital Rotation    :       0.010033067199
   Actual Damping      :       0.0000
   Int. Num. El.       :    67.98577592 (UP=   33.99288796 DN=   33.99288796)
   Exchange            :   -60.31923448
   Correlation         :    -2.96285274

==>> SHARK/AuxDens: NDens=1 Thresh =     2.500000e-11 TCut=    2.500000e-12 Lmax=2 LmaxAux=4
    -> Making Hermite density - ok     0.001 sec
    -> Making Aux-basis density - (lmax=2)
    -> L=0 0:    0.005 sec done=     17375 ( 96.3%) skipped=       675 
    -> L=1 0:    0.011 sec done=     24868 ( 94.6%) skipped=      1431 
    -> L=1 1:    0.059 sec done=      9965 ( 99.9%) skipped=        10 
    -> L=2 0:    0.005 sec done=      9878 ( 88.1%) skipped=      1332 
    -> L=2 1:    0.007 sec done=      7790 ( 97.6%) skipped=       190 
    -> L=2 2:    0.002 sec done=      1995 (100.0%) skipped=         0 
    -> Aux basis density formed in    0.1 sec
    -> Solving linear equations - ok (   0.0 sec)
        Auxbasis Hermite Density:
        P|s>                     ...  0.000
        P|p>                     ...  0.000
        P|d>                     ...  0.000
        P|f>                     ...  0.000
        P|g>                     ...  0.000
        Building the Coulomb matrix: 
        J|ss>                          ... done (  0.0 sec) ndone=   106665 nskipped1=     2003 nskipped2=     1897
        J|ps>                          ... done (  0.0 sec) ndone=   137814 nskipped1=     4406 nskipped2=     5382
        J|pp>                          ... done (  0.0 sec) ndone=    58944 nskipped1=      124 nskipped2=     1728
        J|ds>                          ... done (  0.0 sec) ndone=    33612 nskipped1=     4022 nskipped2=      546
        J|dp>                          ... done (  0.0 sec) ndone=    25534 nskipped1=       12 nskipped2=      238
        J|dd>                          ... done (  0.0 sec) ndone=     3150 nskipped1=        0 nskipped2=        0
        Coulomb matrix built in   0.0 sec

        Total time for Split-RI-J                ...    0.123 sec
          (0) Prelude                            ...    0.000 sec
          (1) Hermite density                    ...    0.000 sec
          (2) Aux basis density                  ...    0.000 sec (inner=  0.0)
          (3) Linear equation solution           ...    0.000 sec
          (4) J-Matrix construction              ...    0.031 sec (inner=  0.0)
        ---------------------------------------------------------

                         ----------------------------
                         !        ITERATION     9   !
                         ----------------------------
   Total Energy        :    -898.489304334943 Eh
   Energy Change       :      -0.000076946116 Eh
   MAX-DP              :       0.029360258110
   RMS-DP              :       0.000863240867
   Orbital gradient    :       0.000829571048
   Orbital Rotation    :       0.007500842058
   Actual Damping      :       0.0000
   Int. Num. El.       :    67.98580737 (UP=   33.99290368 DN=   33.99290368)
   Exchange            :   -60.32070458
   Correlation         :    -2.96292086

==>> SHARK/AuxDens: NDens=1 Thresh =     2.500000e-11 TCut=    2.500000e-12 Lmax=2 LmaxAux=4
    -> Making Hermite density - ok     0.002 sec
    -> Making Aux-basis density - (lmax=2)
    -> L=0 0:    0.006 sec done=     17306 ( 95.9%) skipped=       744 
    -> L=1 0:    0.012 sec done=     24847 ( 94.5%) skipped=      1452 
    -> L=1 1:    0.060 sec done=      9954 ( 99.8%) skipped=        21 
    -> L=2 0:    0.005 sec done=      9878 ( 88.1%) skipped=      1332 
    -> L=2 1:    0.008 sec done=      7790 ( 97.6%) skipped=       190 
    -> L=2 2:    0.002 sec done=      1995 (100.0%) skipped=         0 
    -> Aux basis density formed in    0.1 sec
    -> Solving linear equations - ok (   0.0 sec)
        Auxbasis Hermite Density:
        P|s>                     ...  0.000
        P|p>                     ...  0.000
        P|d>                     ...  0.000
        P|f>                     ...  0.000
        P|g>                     ...  0.000
        Building the Coulomb matrix: 
        J|ss>                          ... done (  0.0 sec) ndone=   106565 nskipped1=     2111 nskipped2=     1869
        J|ps>                          ... done (  0.0 sec) ndone=   137740 nskipped1=     4470 nskipped2=     5360
        J|pp>                          ... done (  0.0 sec) ndone=    58926 nskipped1=      152 nskipped2=     1718
        J|ds>                          ... done (  0.0 sec) ndone=    33544 nskipped1=     4130 nskipped2=      496
        J|dp>                          ... done (  0.0 sec) ndone=    25526 nskipped1=       16 nskipped2=      238
        J|dd>                          ... done (  0.0 sec) ndone=     3150 nskipped1=        0 nskipped2=        0
        Coulomb matrix built in   0.0 sec

        Total time for Split-RI-J                ...    0.126 sec
          (0) Prelude                            ...    0.000 sec
          (1) Hermite density                    ...    0.000 sec
          (2) Aux basis density                  ...    0.000 sec (inner=  0.0)
          (3) Linear equation solution           ...    0.000 sec
          (4) J-Matrix construction              ...    0.031 sec (inner=  0.0)
        ---------------------------------------------------------

                         ----------------------------
                         !        ITERATION    10   !
                         ----------------------------
   Total Energy        :    -898.489305894879 Eh
   Energy Change       :      -0.000001559936 Eh
   MAX-DP              :       0.018596548956
   RMS-DP              :       0.000461661417
   Orbital gradient    :       0.001041782773
   Orbital Rotation    :       0.003517821779
   Actual Damping      :       0.0000
   Int. Num. El.       :    67.98583306 (UP=   33.99291653 DN=   33.99291653)
   Exchange            :   -60.32043913
   Correlation         :    -2.96288078

==>> SHARK/AuxDens: NDens=1 Thresh =     2.500000e-11 TCut=    2.500000e-12 Lmax=2 LmaxAux=4
    -> Making Hermite density - ok     0.002 sec
    -> Making Aux-basis density - (lmax=2)
    -> L=0 0:    0.005 sec done=     16868 ( 93.5%) skipped=      1182 
    -> L=1 0:    0.061 sec done=     24531 ( 93.3%) skipped=      1768 
    -> L=1 1:    0.008 sec done=      9905 ( 99.3%) skipped=        70 
    -> L=2 0:    0.004 sec done=      9790 ( 87.3%) skipped=      1420 
    -> L=2 1:    0.006 sec done=      7790 ( 97.6%) skipped=       190 
    -> L=2 2:    0.002 sec done=      1993 ( 99.9%) skipped=         2 
    -> Aux basis density formed in    0.1 sec
    -> Solving linear equations - ok (   0.0 sec)
        Auxbasis Hermite Density:
        P|s>                     ...  0.000
        P|p>                     ...  0.000
        P|d>                     ...  0.000
        P|f>                     ...  0.000
        P|g>                     ...  0.000
        Building the Coulomb matrix: 
        J|ss>                          ... done (  0.0 sec) ndone=   104126 nskipped1=     3571 nskipped2=     1536
        J|ps>                          ... done (  0.1 sec) ndone=   136251 nskipped1=     5796 nskipped2=     4883
        J|pp>                          ... done (  0.0 sec) ndone=    58667 nskipped1=      368 nskipped2=     1441
        J|ds>                          ... done (  0.0 sec) ndone=    32803 nskipped1=     5007 nskipped2=      180
        J|dp>                          ... done (  0.0 sec) ndone=    25422 nskipped1=       64 nskipped2=      238
        J|dd>                          ... done (  0.0 sec) ndone=     3150 nskipped1=        0 nskipped2=        0
        Coulomb matrix built in   0.1 sec

        Total time for Split-RI-J                ...    0.177 sec
          (0) Prelude                            ...    0.000 sec
          (1) Hermite density                    ...    0.000 sec
          (2) Aux basis density                  ...    0.000 sec (inner=  0.0)
          (3) Linear equation solution           ...    0.000 sec
          (4) J-Matrix construction              ...    0.087 sec (inner=  0.1)
        ---------------------------------------------------------

                         ----------------------------
                         !        ITERATION    11   !
                         ----------------------------
   Total Energy        :    -898.489323594826 Eh
   Energy Change       :      -0.000017699948 Eh
   MAX-DP              :       0.006966058918
   RMS-DP              :       0.000163647118
   Orbital gradient    :       0.000131134444
   Orbital Rotation    :       0.000698746738
   Actual Damping      :       0.0000
   Int. Num. El.       :    67.98584209 (UP=   33.99292104 DN=   33.99292104)
   Exchange            :   -60.32005717
   Correlation         :    -2.96287876

==>> SHARK/AuxDens: NDens=1 Thresh =     2.500000e-11 TCut=    2.500000e-12 Lmax=2 LmaxAux=4
    -> Making Hermite density - ok     0.002 sec
    -> Making Aux-basis density - (lmax=2)
    -> L=0 0:    0.005 sec done=     16574 ( 91.8%) skipped=      1476 
    -> L=1 0:    0.060 sec done=     24097 ( 91.6%) skipped=      2202 
    -> L=1 1:    0.007 sec done=      9785 ( 98.1%) skipped=       190 
    -> L=2 0:    0.004 sec done=      9870 ( 88.0%) skipped=      1340 
    -> L=2 1:    0.006 sec done=      7790 ( 97.6%) skipped=       190 
    -> L=2 2:    0.001 sec done=      1986 ( 99.5%) skipped=         9 
    -> Aux basis density formed in    0.1 sec
    -> Solving linear equations - ok (   0.0 sec)
        Auxbasis Hermite Density:
        P|s>                     ...  0.000
        P|p>                     ...  0.000
        P|d>                     ...  0.000
        P|f>                     ...  0.000
        P|g>                     ...  0.000
        Building the Coulomb matrix: 
        J|ss>                          ... done (  0.0 sec) ndone=   102061 nskipped1=     5257 nskipped2=     1477
        J|ps>                          ... done (  0.0 sec) ndone=   134112 nskipped1=     7394 nskipped2=     4627
        J|pp>                          ... done (  0.0 sec) ndone=    58556 nskipped1=      520 nskipped2=     1384
        J|ds>                          ... done (  0.0 sec) ndone=    32334 nskipped1=     5342 nskipped2=      134
        J|dp>                          ... done (  0.0 sec) ndone=    25332 nskipped1=      120 nskipped2=      238
        J|dd>                          ... done (  0.0 sec) ndone=     3150 nskipped1=        0 nskipped2=        0
        Coulomb matrix built in   0.0 sec

        Total time for Split-RI-J                ...    0.114 sec
          (0) Prelude                            ...    0.000 sec
          (1) Hermite density                    ...    0.000 sec
          (2) Aux basis density                  ...    0.000 sec (inner=  0.0)
          (3) Linear equation solution           ...    0.000 sec
          (4) J-Matrix construction              ...    0.027 sec (inner=  0.0)
        ---------------------------------------------------------

                         ----------------------------
                         !        ITERATION    12   !
                         ----------------------------
   Total Energy        :    -898.489323750314 Eh
   Energy Change       :      -0.000000155488 Eh
   MAX-DP              :       0.000748688071
   RMS-DP              :       0.000031663737
   Orbital gradient    :       0.000138438139
   Orbital Rotation    :       0.000241466895
   Actual Damping      :       0.0000
   Int. Num. El.       :    67.98585462 (UP=   33.99292731 DN=   33.99292731)
   Exchange            :   -60.32055892
   Correlation         :    -2.96291000

==>> SHARK/AuxDens: NDens=1 Thresh =     2.500000e-11 TCut=    2.500000e-12 Lmax=2 LmaxAux=4
    -> Making Hermite density - ok     0.002 sec
    -> Making Aux-basis density - (lmax=2)
    -> L=0 0:    0.005 sec done=     16408 ( 90.9%) skipped=      1642 
    -> L=1 0:    0.011 sec done=     23854 ( 90.7%) skipped=      2445 
    -> L=1 1:    0.007 sec done=      9722 ( 97.5%) skipped=       253 
    -> L=2 0:    0.005 sec done=      9790 ( 87.3%) skipped=      1420 
    -> L=2 1:    0.058 sec done=      7790 ( 97.6%) skipped=       190 
    -> L=2 2:    0.002 sec done=      1967 ( 98.6%) skipped=        28 
    -> Aux basis density formed in    0.1 sec
    -> Solving linear equations - ok (   0.0 sec)
        Auxbasis Hermite Density:
        P|s>                     ...  0.000
        P|p>                     ...  0.000
        P|d>                     ...  0.000
        P|f>                     ...  0.000
        P|g>                     ...  0.000
        Building the Coulomb matrix: 
        J|ss>                          ... done (  0.0 sec) ndone=   100382 nskipped1=     6315 nskipped2=     1340
        J|ps>                          ... done (  0.0 sec) ndone=   132808 nskipped1=     8245 nskipped2=     4331
        J|pp>                          ... done (  0.0 sec) ndone=    58496 nskipped1=      604 nskipped2=     1360
        J|ds>                          ... done (  0.0 sec) ndone=    32097 nskipped1=     5563 nskipped2=       30
        J|dp>                          ... done (  0.0 sec) ndone=    25316 nskipped1=      136 nskipped2=      238
        J|dd>                          ... done (  0.0 sec) ndone=     3150 nskipped1=        0 nskipped2=        0
        Coulomb matrix built in   0.0 sec

        Total time for Split-RI-J                ...    0.129 sec
          (0) Prelude                            ...    0.000 sec
          (1) Hermite density                    ...    0.000 sec
          (2) Aux basis density                  ...    0.000 sec (inner=  0.0)
          (3) Linear equation solution           ...    0.000 sec
          (4) J-Matrix construction              ...    0.036 sec (inner=  0.0)
        ---------------------------------------------------------

                         ----------------------------
                         !        ITERATION    13   !
                         ----------------------------
   Total Energy        :    -898.489324084103 Eh
   Energy Change       :      -0.000000333789 Eh
   MAX-DP              :       0.000277978279
   RMS-DP              :       0.000010145456
   Orbital gradient    :       0.000025540882
   Orbital Rotation    :       0.000089720740
   Actual Damping      :       0.0000
   Int. Num. El.       :    67.98585646 (UP=   33.99292823 DN=   33.99292823)
   Exchange            :   -60.32054671
   Correlation         :    -2.96290378

==>> SHARK/AuxDens: NDens=1 Thresh =     2.500000e-11 TCut=    2.500000e-12 Lmax=2 LmaxAux=4
    -> Making Hermite density - ok     0.002 sec
    -> Making Aux-basis density - (lmax=2)
    -> L=0 0:    0.065 sec done=     15794 ( 87.5%) skipped=      2256 
    -> L=1 0:    0.011 sec done=     23608 ( 89.8%) skipped=      2691 
    -> L=1 1:    0.008 sec done=      9722 ( 97.5%) skipped=       253 
    -> L=2 0:    0.004 sec done=      9606 ( 85.7%) skipped=      1604 
    -> L=2 1:    0.006 sec done=      7784 ( 97.5%) skipped=       196 
    -> L=2 2:    0.002 sec done=      1600 ( 80.2%) skipped=       395 
    -> Aux basis density formed in    0.1 sec
    -> Solving linear equations - ok (   0.0 sec)
        Auxbasis Hermite Density:
        P|s>                     ... -0.002
        P|p>                     ... -0.002
        P|d>                     ... -0.002
        P|f>                     ... -0.002
        P|g>                     ... -0.002
        Building the Coulomb matrix: 
        J|ss>                          ... done (  0.0 sec) ndone=    98270 nskipped1=     7733 nskipped2=     1100
        J|ps>                          ... done (  0.1 sec) ndone=   131375 nskipped1=     9272 nskipped2=     4150
        J|pp>                          ... done (  0.0 sec) ndone=    58418 nskipped1=      708 nskipped2=     1334
        J|ds>                          ... done (  0.0 sec) ndone=    31954 nskipped1=     5720 nskipped2=       16
        J|dp>                          ... done (  0.0 sec) ndone=    25290 nskipped1=      162 nskipped2=      238
        J|dd>                          ... done (  0.0 sec) ndone=     3150 nskipped1=        0 nskipped2=        0
        Coulomb matrix built in   0.1 sec

        Total time for Split-RI-J                ...    0.185 sec
          (0) Prelude                            ...    0.000 sec
          (1) Hermite density                    ...    0.000 sec
          (2) Aux basis density                  ...    0.000 sec (inner=  0.0)
          (3) Linear equation solution           ...    0.000 sec
          (4) J-Matrix construction              ...    0.086 sec (inner=  0.1)
        ---------------------------------------------------------

                         ----------------------------
                         !        ITERATION    14   !
                         ----------------------------
   Total Energy        :    -898.489324090303 Eh
   Energy Change       :      -0.000000006200 Eh
   MAX-DP              :       0.000345648495
   RMS-DP              :       0.000008341003
   Orbital gradient    :       0.000029348001
   Orbital Rotation    :       0.000038848918
   Actual Damping      :       0.0000
   Int. Num. El.       :    67.98585708 (UP=   33.99292854 DN=   33.99292854)
   Exchange            :   -60.32026073
   Correlation         :    -2.96289435

==>> SHARK/AuxDens: NDens=1 Thresh =     2.500000e-11 TCut=    2.500000e-12 Lmax=2 LmaxAux=4
    -> Making Hermite density - ok     0.002 sec
    -> Making Aux-basis density - (lmax=2)
    -> L=0 0:    0.005 sec done=     15871 ( 87.9%) skipped=      2179 
    -> L=1 0:    0.010 sec done=     23489 ( 89.3%) skipped=      2810 
    -> L=1 1:    0.058 sec done=      9716 ( 97.4%) skipped=       259 
    -> L=2 0:    0.005 sec done=      9303 ( 83.0%) skipped=      1907 
    -> L=2 1:    0.007 sec done=      7697 ( 96.5%) skipped=       283 
    -> L=2 2:    0.001 sec done=      1488 ( 74.6%) skipped=       507 
    -> Aux basis density formed in    0.1 sec
    -> Solving linear equations - ok (   0.0 sec)
        Auxbasis Hermite Density:
        P|s>                     ... -0.002
        P|p>                     ... -0.002
        P|d>                     ... -0.002
        P|f>                     ... -0.002
        P|g>                     ... -0.002
        Building the Coulomb matrix: 
[...]
Time for construction of square roots      ...    0.004 sec
Total time needed                          ...    0.006 sec

-------------------
DFT GRID GENERATION
-------------------

General Integration Accuracy     IntAcc      ... 4.388
Radial Grid Type                 RadialGrid  ... OptM3 with GC (2021)
Angular Grid (max. ang.)         AngularGrid ... 4 (Lebedev-302)
Angular grid pruning method      GridPruning ... 4 (adaptive)
Weight generation scheme         WeightScheme... Becke
Basis function cutoff            BFCut       ... 1.0000e-11
Integration weight cutoff        WCut        ... 1.0000e-14
Angular grids for H and He will be reduced by one unit
Partially contracted basis set               ... off
Rotationally invariant grid construction     ... off

Total number of grid points                  ...    39114
Total number of batches                      ...      615
Average number of points per batch           ...       63
Average number of grid points per atom       ...     6519
Time for grid setup =    0.697 sec

--------------------
COSX GRID GENERATION
--------------------

GRIDX 1
-------
General Integration Accuracy     IntAcc      ... 3.816
Radial Grid Type                 RadialGrid  ... OptM3 with GC (2021)
Angular Grid (max. ang.)         AngularGrid ... 1 (Lebedev-50)
Angular grid pruning method      GridPruning ... 4 (adaptive)
Weight generation scheme         WeightScheme... Becke
Basis function cutoff            BFCut       ... 1.0000e-11
Integration weight cutoff        WCut        ... 1.0000e-14
Angular grids for H and He will be reduced by one unit
Partially contracted basis set               ... on
Rotationally invariant grid construction     ... off

Total number of grid points                  ...     4756
Total number of batches                      ...       77
Average number of points per batch           ...       61
Average number of grid points per atom       ...      793
UseSFitting                                  ... on

GRIDX 2
-------
General Integration Accuracy     IntAcc      ... 4.020
Radial Grid Type                 RadialGrid  ... OptM3 with GC (2021)
Angular Grid (max. ang.)         AngularGrid ... 2 (Lebedev-110)
Angular grid pruning method      GridPruning ... 4 (adaptive)
Weight generation scheme         WeightScheme... Becke
Basis function cutoff            BFCut       ... 1.0000e-11
Integration weight cutoff        WCut        ... 1.0000e-14
Angular grids for H and He will be reduced by one unit
Partially contracted basis set               ... on
Rotationally invariant grid construction     ... off

Total number of grid points                  ...    11382
Total number of batches                      ...      181
Average number of points per batch           ...       62
Average number of grid points per atom       ...     1897
UseSFitting                                  ... on

GRIDX 3
-------
General Integration Accuracy     IntAcc      ... 4.338
Radial Grid Type                 RadialGrid  ... OptM3 with GC (2021)
Angular Grid (max. ang.)         AngularGrid ... 3 (Lebedev-194)
Angular grid pruning method      GridPruning ... 4 (adaptive)
Weight generation scheme         WeightScheme... Becke
Basis function cutoff            BFCut       ... 1.0000e-11
Integration weight cutoff        WCut        ... 1.0000e-14
Angular grids for H and He will be reduced by one unit
Partially contracted basis set               ... on
Rotationally invariant grid construction     ... off

Total number of grid points                  ...    26566
Total number of batches                      ...      417
Average number of points per batch           ...       63
Average number of grid points per atom       ...     4428
UseSFitting                                  ... on

Time for X-Grid setup             =    0.707 sec


--------------------
CPCM SOLVATION MODEL
--------------------
CPCM parameters:
  Epsilon                                         ...      69.0000
  Refrac                                          ...       1.3400
  Rsolv                                           ...       1.3000
  Surface type                                    ... GAUSSIAN VDW
  Epsilon function type                           ...         CPCM
Radii:
 Radius for O  used is    3.4469 Bohr (=   1.8240 Ang.)
 Radius for S  used is    4.0818 Bohr (=   2.1600 Ang.)
 Radius for Mg used is    3.9231 Bohr (=   2.0760 Ang.)
Calculating surface                               ...        done! (  0.0s)
GEPOL surface points                              ...          481
GEPOL Volume                                      ...     807.7507
GEPOL Surface-area                                ...     517.2910
Calculating surface distance matrix               ...        done! (  0.0s)
Performing Cholesky decomposition & store         ...        done! (  0.1s)
Overall time for CPCM initialization              ...                 0.1s
--------------
SCF ITERATIONS
--------------
ITER       Energy         Delta-E        Max-DP      RMS-DP      [F,P]     Damp
               ***  Starting incremental Fock matrix formation  ***
  0   -898.7389189206   0.000000000000 0.00234927  0.00017945  0.0088327 0.7000
                      *** Initiating the SOSCF procedure ***
                      *** Re-Reading the Fockian *** 
                      *** Removing any level shift *** 
ITER      Energy       Delta-E        Grad      Rot      Max-DP    RMS-DP
  1   -898.73919864  -0.0002797232  0.001251  0.001251  0.007366  0.000564
               *** Restarting incremental Fock matrix formation ***
  2   -898.73993155  -0.0007329087  0.000864  0.001633  0.003659  0.000207
  3   -898.73992515   0.0000063998  0.001354  0.000922  0.002243  0.000121
  4   -898.73996899  -0.0000438384  0.000105  0.000232  0.000445  0.000027
  5   -898.73996940  -0.0000004091  0.000056  0.000082  0.000184  0.000010
  6   -898.73996945  -0.0000000506  0.000047  0.000052  0.000095  0.000007
  7   -898.73996952  -0.0000000722  0.000021  0.000029  0.000047  0.000002
  8   -898.73996953  -0.0000000066  0.000014  0.000017  0.000027  0.000001
  9   -898.73996953  -0.0000000015  0.000004  0.000011  0.000030  0.000001
 10   -898.73996953   0.0000000004  0.000003  0.000004  0.000014  0.000000
                  ***Gradient check signals convergence***
              ***Rediagonalizing the Fockian in SOSCF/NRSCF***

               *****************************************************
               *                     SUCCESS                       *
               *           SCF CONVERGED AFTER  11 CYCLES          *
               *****************************************************

Old exchange energy                            =    -15.122140727 Eh
New exchange energy                            =    -15.122137237 Eh
Exchange energy change after final integration =      0.000003490 Eh
Total energy after final integration           =   -898.739966044 Eh
Final COS-X integration done in                =     5.188 sec
Total Energy       :         -898.73996604 Eh          -24455.95779 eV
  Last Energy change         ...   -3.4088e-09  Tolerance :   1.0000e-08
  Last MAX-Density change    ...    2.6645e-15  Tolerance :   1.0000e-07
             **** THE GBW FILE WAS UPDATED (MgSO4_DFT.gbw) ****
             **** DENSITY MgSO4_DFT.scfp WAS UPDATED ****
             **** ENERGY FILE WAS UPDATED (MgSO4_DFT.en.tmp) ****
             **** THE GBW FILE WAS UPDATED (MgSO4_DFT.gbw) ****
             **** DENSITY MgSO4_DFT.scfp WAS UPDATED ****
Total SCF time: 0 days 0 hours 0 min 42 sec 

Maximum memory used throughout the entire SCF-calculation: 54.5 MB

-------------------------   --------------------
FINAL SINGLE POINT ENERGY      -898.739966044277
-------------------------   --------------------

------------------------------------------------------------------------------
                         ORCA SCF GRADIENT CALCULATION
------------------------------------------------------------------------------

 ... reading COSX grid (gridx3)
Gradient of the Kohn-Sham DFT energy:
Kohn-Sham wavefunction type      ... RKS
Hartree-Fock exchange scaling    ...    0.200
Number of operators              ...    1
Number of atoms                  ...    6
Basis set dimensions             ...   92
Integral neglect threshold       ... 2.5e-11
Integral primitive cutoff        ... 2.5e-12
SHARK Integral package           ... ON

Nuc. rep. gradient       (SHARK) ... done (  0.0 sec)
HCore & Overlap gradient (SHARK) ... done (  0.1 sec)
RI-J gradient            (SHARK) ... done (  0.7 sec)
COSX-gradient                    ... done (  5.9 sec)
Exchange-correlation gradient    ... done

------------------
CARTESIAN GRADIENT
------------------

   1   O   :   -0.011148942   -0.011009529    0.008743040
   2   S   :   -0.014370167   -0.004726811    0.002549002
   3   O   :   -0.018194258   -0.001358791    0.002699767
   4   O   :    0.000466595    0.000445212   -0.000360408
   5   O   :   -0.000153225   -0.000548816    0.000388315
   6   Mg  :    0.043810292    0.017253342   -0.014798410

Difference to translation invariance:
           :    0.0004102954    0.0000546073   -0.0007786929

Difference to rotation invariance:
           :    0.0036430903    0.0038331843    0.0096755135

Norm of the cartesian gradient     ...    0.0577450523
RMS gradient                       ...    0.0136106394
MAX gradient                       ...    0.0438102924

-------
TIMINGS
-------

Total SCF gradient time            ...       10.310 sec

One electron gradient       ....       0.089 sec  (  0.9%)
RI-J Coulomb gradient       ....       0.728 sec  (  7.1%)
COSX gradient               ....       5.886 sec  ( 57.1%)
XC gradient                 ....       2.692 sec  ( 26.1%)
CPCM gradient               ....       0.218 sec  (  2.1%)
   A-Matrix (El+Nuc)        ....       0.010 sec  (  0.1%)
   Potential                ....       0.208 sec  (  2.0%)

Maximum memory used throughout the entire SCFGRAD-calculation: 43.1 MB
------------------------------------------------------------------------------
                         ORCA GEOMETRY RELAXATION STEP
------------------------------------------------------------------------------

Reading the OPT-File                    .... done
Getting information on internals        .... done
Copying old internal coords+grads       .... done
Making the new internal coordinates     .... (new redundants).... done
Validating the new internal coordinates .... (new redundants).... done
Calculating the B-matrix                .... done
Calculating the G,G- and P matrices     .... done
Transforming gradient to internals      .... done
Projecting the internal gradient        .... done
Number of atoms                         ....   6
Number of internal coordinates          ....  36
Current Energy                          ....  -898.739966044 Eh
Current gradient norm                   ....     0.057745052 Eh/bohr
Maximum allowed component of the step   ....  0.300
Current trust radius                    ....  0.300
Resetting Hessian after 50 BFGS Update Steps....
Build internal Hessian                  .... (Almloef) done
Updating Hessian with the last 5 steps  .... done
Forming the augmented Hessian           .... done
Diagonalizing the augmented Hessian     .... done
Last element of RFO vector              ....  0.346704732
Lowest eigenvalues of augmented Hessian:
 -0.070765907 -0.008109983  0.019539476  0.029415156  0.098904946
Length of the computed step             ....  2.705398096
Warning: the length of the step is outside the trust region - taking restricted step instead
The input lambda is                     ....    -0.070766
   iter:   1  x=   -0.075384  g= 1565.265341 f(x)=     7.229179
   iter:   2  x=   -0.082217  g=  467.908898 f(x)=     3.196868
   iter:   3  x=   -0.092119  g=  141.702753 f(x)=     1.403159
   iter:   4  x=   -0.105780  g=   44.258393 f(x)=     0.604645
   iter:   5  x=   -0.122601  g=   14.818163 f(x)=     0.249252
   iter:   6  x=   -0.138718  g=    5.733485 f(x)=     0.092404
   iter:   7  x=   -0.147889  g=    2.885149 f(x)=     0.026462
   iter:   8  x=   -0.149802  g=    2.077933 f(x)=     0.003974
   iter:   9  x=   -0.149866  g=    1.949192 f(x)=     0.000125
   iter:  10  x=   -0.149866  g=    1.945068 f(x)=     0.000000
   iter:  11  x=   -0.149866  g=    1.945064 f(x)=     0.000000
   iter:  12  x=   -0.149866  g=    1.945064 f(x)=    -0.000000
The output lambda is                    ....    -0.149866 (12 iterations)
The final length of the internal step   ....  0.300000000
Converting the step to cartesian space:
 Initial RMS(Int)=    0.0500000000
Transforming coordinates:
 Iter   0:  RMS(Cart)=    0.0400943616 RMS(Int)=    0.0493856245
 Iter   1:  RMS(Cart)=    0.0006445288 RMS(Int)=    0.0006385378
 Iter   2:  RMS(Cart)=    0.0000093412 RMS(Int)=    0.0000084119
 Iter   3:  RMS(Cart)=    0.0000000706 RMS(Int)=    0.0000000808
done
Storing new coordinates                 .... done

                                .--------------------.
          ----------------------|Geometry convergence|-------------------------
          Item                value                   Tolerance       Converged
          ---------------------------------------------------------------------
          Energy change      -0.0006224559            0.0000050000      NO
          RMS gradient        0.0049826398            0.0001000000      NO
          MAX gradient        0.0178409889            0.0003000000      NO
          RMS step            0.0500000000            0.0020000000      NO
          MAX step            0.2046351624            0.0040000000      NO
          ........................................................
          Max(Bonds)      0.1083      Max(Angles)    1.37
          Max(Dihed)        1.32      Max(Improp)    0.00
          ---------------------------------------------------------------------

The optimization has not yet converged - more geometry cycles are needed


    ---------------------------------------------------------------------------
                         Redundant Internal Coordinates
                            (Angstroem and degrees)

        Definition                    Value    dE/dq     Step     New-Value
    ----------------------------------------------------------------------------
     1. B(S   1,O   0)                1.5101 -0.000522 -0.0023    1.5078   
     2. B(O   2,S   1)                1.5167  0.000374 -0.0209    1.4958   
     3. B(O   3,S   1)                1.5288  0.000380 -0.0150    1.5138   
     4. B(O   4,S   1)                1.5299 -0.000386  0.0074    1.5373   
     5. B(Mg  5,S   1)                3.9262 -0.016546  0.0792    4.0054   
     6. B(Mg  5,O   2)                3.5370 -0.017841  0.1083    3.6453   
     7. B(Mg  5,O   0)                3.1331 -0.017018  0.0724    3.2055   
     8. A(S   1,O   0,Mg  5)          110.53 -0.000152    0.79    111.31   
     9. A(O   2,S   1,O   3)          108.79  0.000549   -0.46    108.33   
    10. A(O   0,S   1,Mg  5)           48.36 -0.000661   -0.05     48.31   
    11. A(O   2,S   1,O   4)          108.44 -0.000174    0.01    108.46   
    12. A(O   3,S   1,O   4)          108.69 -0.000019   -1.30    107.38   
    13. A(O   0,S   1,O   2)          112.44 -0.001551    1.30    113.75   
    14. A(O   0,S   1,O   4)          109.31  0.000555    0.13    109.44   
    15. A(O   2,S   1,Mg  5)           64.09 -0.000893    1.37     65.46   
    16. A(O   3,S   1,Mg  5)          125.80  0.000209    0.14    125.94   
    17. A(O   4,S   1,Mg  5)          124.85 -0.000093    0.42    125.27   
    18. A(O   0,S   1,O   3)          109.09  0.000671    0.12    109.21   
    19. A(S   1,O   2,Mg  5)           93.23 -0.000097   -0.98     92.25   
    20. A(S   1,Mg  5,O   2)           22.69  0.000989   -0.39     22.29   
    21. A(O   0,Mg  5,O   2)           43.80  0.001802   -1.13     42.67   
    22. A(O   0,Mg  5,S   1)           21.11  0.000812   -0.73     20.38   
    23. D(O   2,S   1,O   0,Mg  5)      0.58 -0.000335    0.12      0.70   
    24. D(O   3,S   1,O   0,Mg  5)    121.37 -0.000187    0.19    121.55   
    25. D(O   4,S   1,O   0,Mg  5)   -119.91  0.000512   -1.32   -121.23   
    26. D(Mg  5,O   2,S   1,O   3)   -121.44  0.000057   -0.85   -122.29   
    27. D(Mg  5,O   2,S   1,O   4)    120.51 -0.000130    0.59    121.09   
    28. D(Mg  5,O   2,S   1,O   0)     -0.48  0.000279   -0.58     -1.06   
    29. D(O   2,Mg  5,O   0,S   1)     -0.33  0.000183   -0.07     -0.40   
    30. D(O   2,Mg  5,S   1,O   4)    -95.18  0.000769   -0.50    -95.68   
    31. D(O   2,Mg  5,S   1,O   3)     95.23  0.000021    0.80     96.03   
    32. D(O   2,Mg  5,S   1,O   0)    179.41  0.000333   -0.21    179.20   
    33. D(O   0,Mg  5,S   1,O   4)     85.41  0.000437   -0.29     85.13   
    34. D(O   0,Mg  5,S   1,O   3)    -84.17 -0.000311    1.01    -83.16   
    35. D(O   0,Mg  5,O   2,S   1)      0.31 -0.000172    0.18      0.49   
    36. D(O   0,Mg  5,S   1,O   2)   -179.41 -0.000333    0.21   -179.20   
    ----------------------------------------------------------------------------




    ----------------------------------------------------------------------------
                                  WARNING !!!
       The optimization did not converge but reached the maximum number of
       optimization cycles.
       Please check your results very carefully.
    ----------------------------------------------------------------------------



                            ***************************************
                            *     ORCA property calculations      *
                            ***************************************

                                    ---------------------
                                    Active property flags
                                    ---------------------
   (+) Dipole Moment


------------------------------------------------------------------------------
                       ORCA ELECTRIC PROPERTIES CALCULATION
------------------------------------------------------------------------------

Dipole Moment Calculation                       ... on
Quadrupole Moment Calculation                   ... off
Polarizability Calculation                      ... off
GBWName                                         ... MgSO4_DFT.gbw
Electron density                                ... MgSO4_DFT.scfp
The origin for moment calculation is the CENTER OF MASS  = ( 4.523595, -0.083457  0.073602)

-------------
DIPOLE MOMENT
-------------
                                X             Y             Z
Electronic contribution:     28.73431      12.88062     -10.13299
Nuclear contribution   :      0.77431       0.33880      -0.26448
                        -----------------------------------------
Total Dipole Moment    :     29.50862      13.21942     -10.39747
                        -----------------------------------------
Magnitude (a.u.)       :     33.96497
Magnitude (Debye)      :     86.33209



--------------------
Rotational spectrum 
--------------------
 
Rotational constants in cm-1:     0.170477     0.040978     0.040783 
Rotational constants in MHz :  5110.777533  1228.491501  1222.649281 

 Dipole components along the rotational axes: 
x,y,z [a.u.] :    33.961135     0.494750    -0.124883 
x,y,z [Debye]:    86.322346     1.257553    -0.317428 

 

Timings for individual modules:

Sum of individual times         ...     3366.939 sec (=  56.116 min)
GTO integral calculation        ...       23.086 sec (=   0.385 min)   0.7 %
SCF iterations                  ...     2628.908 sec (=  43.815 min)  78.1 %
SCF Gradient evaluation         ...      710.568 sec (=  11.843 min)  21.1 %
Geometry relaxation             ...        4.377 sec (=   0.073 min)   0.1 %
                             ****ORCA TERMINATED NORMALLY****
TOTAL RUN TIME: 0 days 0 hours 56 minutes 26 seconds 97 msec
