
                                 *****************
                                 * O   R   C   A *
                                 *****************

                                            #,                                       
                                            ###                                      
                                            ####                                     
                                            #####                                    
                                            ######                                   
                                           ########,                                 
                                     ,,################,,,,,                         
                               ,,#################################,,                 
                          ,,##########################################,,             
                       ,#########################################, ''#####,          
                    ,#############################################,,   '####,        
                  ,##################################################,,,,####,       
                ,###########''''           ''''###############################       
              ,#####''   ,,,,##########,,,,          '''####'''          '####       
            ,##' ,,,,###########################,,,                        '##       
           ' ,,###''''                  '''############,,,                           
         ,,##''                                '''############,,,,        ,,,,,,###''
      ,#''                                            '''#######################'''  
     '                                                          ''''####''''         
             ,#######,   #######,   ,#######,      ##                                
            ,#'     '#,  ##    ##  ,#'     '#,    #''#        ######   ,####,        
            ##       ##  ##   ,#'  ##            #'  '#       #        #'  '#        
            ##       ##  #######   ##           ,######,      #####,   #    #        
            '#,     ,#'  ##    ##  '#,     ,#' ,#      #,         ##   #,  ,#        
             '#######'   ##     ##  '#######'  #'      '#     #####' # '####'        



                  #######################################################
                  #                        -***-                        #
                  #          Department of theory and spectroscopy      #
                  #    Directorship and core code : Frank Neese         #
                  #        Max Planck Institute fuer Kohlenforschung    #
                  #                Kaiser Wilhelm Platz 1               #
                  #                 D-45470 Muelheim/Ruhr               #
                  #                      Germany                        #
                  #                                                     #
                  #                  All rights reserved                #
                  #                        -***-                        #
                  #######################################################


                         Program Version 5.0.4 -  RELEASE  -


 With contributions from (in alphabetic order):
   Daniel Aravena         : Magnetic Suceptibility
   Michael Atanasov       : Ab Initio Ligand Field Theory (pilot matlab implementation)
   Alexander A. Auer      : GIAO ZORA, VPT2 properties, NMR spectrum
   Ute Becker             : Parallelization
   Giovanni Bistoni       : ED, misc. LED, open-shell LED, HFLD
   Martin Brehm           : Molecular dynamics
   Dmytro Bykov           : SCF Hessian
   Vijay G. Chilkuri      : MRCI spin determinant printing, contributions to CSF-ICE
   Dipayan Datta          : RHF DLPNO-CCSD density
   Achintya Kumar Dutta   : EOM-CC, STEOM-CC
   Dmitry Ganyushin       : Spin-Orbit,Spin-Spin,Magnetic field MRCI
   Miquel Garcia          : C-PCM and meta-GGA Hessian, CC/C-PCM, Gaussian charge scheme
   Yang Guo               : DLPNO-NEVPT2, F12-NEVPT2, CIM, IAO-localization
   Andreas Hansen         : Spin unrestricted coupled pair/coupled cluster methods
   Benjamin Helmich-Paris : MC-RPA, TRAH-SCF, COSX integrals
   Lee Huntington         : MR-EOM, pCC
   Robert Izsak           : Overlap fitted RIJCOSX, COSX-SCS-MP3, EOM
   Marcus Kettner         : VPT2
   Christian Kollmar      : KDIIS, OOCD, Brueckner-CCSD(T), CCSD density, CASPT2, CASPT2-K
   Simone Kossmann        : Meta GGA functionals, TD-DFT gradient, OOMP2, MP2 Hessian
   Martin Krupicka        : Initial AUTO-CI
   Lucas Lang             : DCDCAS
   Marvin Lechner         : AUTO-CI (C++ implementation), FIC-MRCC
   Dagmar Lenk            : GEPOL surface, SMD
   Dimitrios Liakos       : Extrapolation schemes; Compound Job, initial MDCI parallelization
   Dimitrios Manganas     : Further ROCIS development; embedding schemes
   Dimitrios Pantazis     : SARC Basis sets
   Anastasios Papadopoulos: AUTO-CI, single reference methods and gradients
   Taras Petrenko         : DFT Hessian,TD-DFT gradient, ASA, ECA, R-Raman, ABS, FL, XAS/XES, NRVS
   Peter Pinski           : DLPNO-MP2, DLPNO-MP2 Gradient
   Christoph Reimann      : Effective Core Potentials
   Marius Retegan         : Local ZFS, SOC
   Christoph Riplinger    : Optimizer, TS searches, QM/MM, DLPNO-CCSD(T), (RO)-DLPNO pert. Triples
   Tobias Risthaus        : Range-separated hybrids, TD-DFT gradient, RPA, STAB
   Michael Roemelt        : Original ROCIS implementation
   Masaaki Saitow         : Open-shell DLPNO-CCSD energy and density
   Barbara Sandhoefer     : DKH picture change effects
   Avijit Sen             : IP-ROCIS
   Kantharuban Sivalingam : CASSCF convergence, NEVPT2, FIC-MRCI
   Bernardo de Souza      : ESD, SOC TD-DFT
   Georgi Stoychev        : AutoAux, RI-MP2 NMR, DLPNO-MP2 response
   Willem Van den Heuvel  : Paramagnetic NMR
   Boris Wezisla          : Elementary symmetry handling
   Frank Wennmohs         : Technical directorship


 We gratefully acknowledge several colleagues who have allowed us to
 interface, adapt or use parts of their codes:
   Stefan Grimme, W. Hujo, H. Kruse, P. Pracht,  : VdW corrections, initial TS optimization,
                  C. Bannwarth, S. Ehlert          DFT functionals, gCP, sTDA/sTD-DF
   Ed Valeev, F. Pavosevic, A. Kumar             : LibInt (2-el integral package), F12 methods
   Garnet Chan, S. Sharma, J. Yang, R. Olivares  : DMRG
   Ulf Ekstrom                                   : XCFun DFT Library
   Mihaly Kallay                                 : mrcc  (arbitrary order and MRCC methods)
   Jiri Pittner, Ondrej Demel                    : Mk-CCSD
   Frank Weinhold                                : gennbo (NPA and NBO analysis)
   Christopher J. Cramer and Donald G. Truhlar   : smd solvation model
   Lars Goerigk                                  : TD-DFT with DH, B97 family of functionals
   V. Asgeirsson, H. Jonsson                     : NEB implementation
   FAccTs GmbH                                   : IRC, NEB, NEB-TS, DLPNO-Multilevel, CI-OPT
                                                   MM, QMMM, 2- and 3-layer-ONIOM, Crystal-QMMM,
                                                   LR-CPCM, SF, NACMEs, symmetry and pop. for TD-DFT,
                                                   nearIR, NL-DFT gradient (VV10), updates on ESD,
                                                   ML-optimized integration grids
   S Lehtola, MJT Oliveira, MAL Marques          : LibXC Library
   Liviu Ungur et al                             : ANISO software


 Your calculation uses the libint2 library for the computation of 2-el integrals
 For citations please refer to: http://libint.valeyev.net

 Your ORCA version has been built with support for libXC version: 5.1.0
 For citations please refer to: https://tddft.org/programs/libxc/

 This ORCA versions uses:
   CBLAS   interface :  Fast vector & matrix operations
   LAPACKE interface :  Fast linear algebra routines
   SCALAPACK package :  Parallel linear algebra routines
   Shared memory     :  Shared parallel matrices
   BLAS/LAPACK       :  OpenBLAS 0.3.15  USE64BITINT DYNAMIC_ARCH NO_AFFINITY SkylakeX SINGLE_THREADED
        Core in use  :  SkylakeX
   Copyright (c) 2011-2014, The OpenBLAS Project


================================================================================

----- Orbital basis set information -----
Your calculation utilizes the basis: def2-SVP
   F. Weigend and R. Ahlrichs, Phys. Chem. Chem. Phys. 7, 3297 (2005).

----- AuxJ basis set information -----
Your calculation utilizes the auxiliary basis: def2/J
   F. Weigend, Phys. Chem. Chem. Phys. 8, 1057 (2006).

================================================================================
                                        WARNINGS
                       Please study these warnings very carefully!
================================================================================


WARNING: Geometry Optimization
  ===> : Switching off AutoStart
         For restart on a previous wavefunction, please use MOREAD

INFO   : the flag for use of the SHARK integral package has been found!

================================================================================
                                       INPUT FILE
================================================================================
NAME = HCl_DFT.inp
|  1> ## avogadro generated ORCA input file 
|  2> # Advanced Mode
|  3> # 
|  4> ! B3LYP OPT def2-SVP NormalPrint defgrid2 NormalSCF 
|  5> 
|  6> ! CPCM
|  7> %cpcm
|  8> epsilon 69.0
|  9> refrac 1.34
| 10> end
| 11> 
| 12> %scf
| 13> 	MaxIter 125
| 14> 	CNVDIIS 1
| 15> 	CNVSOSCF 1 
| 16> end
| 17> 
| 18> * xyz 0 1
| 19>   Cl        1.07462        0.02040        0.07533
| 20>    H        2.38044        0.02040        0.07533
| 21> *
| 22> 
| 23> 
| 24>                          ****END OF INPUT****
================================================================================

                       *****************************
                       * Geometry Optimization Run *
                       *****************************

Geometry optimization settings:
Update method            Update   .... BFGS
Choice of coordinates    CoordSys .... Z-matrix Internals
Initial Hessian          InHess   .... Almoef's Model

Convergence Tolerances:
Energy Change            TolE     ....  5.0000e-06 Eh
Max. Gradient            TolMAXG  ....  3.0000e-04 Eh/bohr
RMS Gradient             TolRMSG  ....  1.0000e-04 Eh/bohr
Max. Displacement        TolMAXD  ....  4.0000e-03 bohr
RMS Displacement         TolRMSD  ....  2.0000e-03 bohr
Strict Convergence                ....  False
------------------------------------------------------------------------------
                        ORCA OPTIMIZATION COORDINATE SETUP
------------------------------------------------------------------------------

The optimization will be done in new redundant internal coordinates
Making redundant internal coordinates   ...  (new redundants) done
Evaluating the initial hessian          ...  (Almloef) done
Evaluating the coordinates              ...  done
Calculating the B-matrix                .... done
Calculating the G-matrix                .... done
Diagonalizing the G-matrix              .... done
The first mode is                       ....    0
The number of degrees of freedom        ....    1

    -----------------------------------------------------------------
                    Redundant Internal Coordinates


    -----------------------------------------------------------------
         Definition                    Initial Value    Approx d2E/dq
    -----------------------------------------------------------------
      1. B(H   1,Cl  0)                  1.3058         0.365672   
    -----------------------------------------------------------------

Number of atoms                         .... 2
Number of degrees of freedom            .... 1

         *************************************************************
         *                GEOMETRY OPTIMIZATION CYCLE   1            *
         *************************************************************
---------------------------------
CARTESIAN COORDINATES (ANGSTROEM)
---------------------------------
  Cl     1.074620    0.020400    0.075330
  H      2.380440    0.020400    0.075330

----------------------------
CARTESIAN COORDINATES (A.U.)
----------------------------
  NO LB      ZA    FRAG     MASS         X           Y           Z
   0 Cl   17.0000    0    35.453    2.030737    0.038550    0.142353
   1 H     1.0000    0     1.008    4.498380    0.038550    0.142353

--------------------------------
INTERNAL COORDINATES (ANGSTROEM)
--------------------------------
 Cl     0   0   0     0.000000000000     0.00000000     0.00000000
 H      1   0   0     1.305820000000     0.00000000     0.00000000

---------------------------
INTERNAL COORDINATES (A.U.)
---------------------------
 Cl     0   0   0     0.000000000000     0.00000000     0.00000000
 H      1   0   0     2.467642180197     0.00000000     0.00000000

---------------------
BASIS SET INFORMATION
---------------------
There are 2 groups of distinct atoms

 Group   1 Type Cl  : 10s7p1d contracted to 4s3p1d pattern {5311/511/1}
 Group   2 Type H   : 4s1p contracted to 2s1p pattern {31/1}

Atom   0Cl   basis set group =>   1
Atom   1H    basis set group =>   2
---------------------------------
AUXILIARY/J BASIS SET INFORMATION
---------------------------------
There are 2 groups of distinct atoms

 Group   1 Type Cl  : 14s5p5d2f1g contracted to 8s4p3d1f1g pattern {71111111/2111/311/2/1}
 Group   2 Type H   : 5s2p1d contracted to 3s1p1d pattern {311/2/1}

Atom   0Cl   basis set group =>   1
Atom   1H    basis set group =>   2
------------------------------------------------------------------------------
                           ORCA GTO INTEGRAL CALCULATION
                           -- RI-GTO INTEGRALS CHOSEN --
------------------------------------------------------------------------------
------------------------------------------------------------------------------
                   ___                                                        
                  /   \      - P O W E R E D   B Y -                         
                 /     \                                                     
                 |  |  |   _    _      __       _____    __    __             
                 |  |  |  | |  | |    /  \     |  _  \  |  |  /  |          
                  \  \/   | |  | |   /    \    | | | |  |  | /  /          
                 / \  \   | |__| |  /  /\  \   | |_| |  |  |/  /          
                |  |  |   |  __  | /  /__\  \  |    /   |      \           
                |  |  |   | |  | | |   __   |  |    \   |  |\   \          
                \     /   | |  | | |  |  |  |  | |\  \  |  | \   \       
                 \___/    |_|  |_| |__|  |__|  |_| \__\ |__|  \__/        
                                                                              
                      - O R C A' S   B I G   F R I E N D -                    
                                      &                                       
                       - I N T E G R A L  F E E D E R -                       
                                                                              
 v1 FN, 2020, v2 2021                                                         
------------------------------------------------------------------------------


Reading SHARK input file HCl_DFT.SHARKINP.tmp ... SHARK General Contraction Test:  Segmented basis detected
   -> Pre-screening matrix *NOT* found on disk - recalculating with NShells=11
   -> Leaving CheckPreScreeningMatrix
ok
----------------------
SHARK INTEGRAL PACKAGE
----------------------

Number of atoms                             ...      2
Number of basis functions                   ...     23
Number of shells                            ...     11
Maximum angular momentum                    ...      2
Integral batch strategy                     ... SHARK/LIBINT Hybrid
RI-J (if used) integral strategy            ... SPLIT-RIJ (Revised 2003 algorithm where possible)
Printlevel                                  ...      2
Contraction scheme used                     ... SEGMENTED contraction
Coulomb Range Separation                    ... NOT USED
Exchange Range Separation                   ... NOT USED
Finite Nucleus Model                        ... NOT USED
Auxiliary Coulomb fitting basis             ... AVAILABLE
   # of basis functions in Aux-J            ...     62
   # of shells in Aux-J                     ...     22
   Maximum angular momentum in Aux-J        ...      4
Auxiliary J/K fitting basis                 ... NOT available
Auxiliary Correlation fitting basis         ... NOT available
Auxiliary 'external' fitting basis          ... NOT available
Integral threshold                          ...     2.500000e-11
Primitive cut-off                           ...     2.500000e-12
Primitive pair pre-selection threshold      ...     2.500000e-12

Calculating pre-screening integrals         ... done (  0.1 sec) Dimension = 11
Organizing shell pair data                  ... done (  0.0 sec)
Shell pair information
Total number of shell pairs                 ...        66
Shell pairs after pre-screening             ...        66
Total number of primitive shell pairs       ...       302
Primitive shell pairs kept                  ...       292
          la=0 lb=0:     21 shell pairs
          la=1 lb=0:     24 shell pairs
          la=1 lb=1:     10 shell pairs
          la=2 lb=0:      6 shell pairs
          la=2 lb=1:      4 shell pairs
          la=2 lb=2:      1 shell pairs

Calculating one electron integrals          ... done (  0.0 sec)
Calculating RI/J V-Matrix + Cholesky decomp.... done (  0.1 sec)
Calculating Nuclear repulsion               ... done (  0.0 sec) ENN=      6.889167374600 Eh

SHARK setup successfully completed in   0.4 seconds

Maximum memory used throughout the entire GTOINT-calculation: 8.7 MB
-------------------------------------------------------------------------------
                                 ORCA SCF
-------------------------------------------------------------------------------

------------
SCF SETTINGS
------------
Hamiltonian:
 Density Functional     Method          .... DFT(GTOs)
 Exchange Functional    Exchange        .... B88
   X-Alpha parameter    XAlpha          ....  0.666667
   Becke's b parameter  XBeta           ....  0.004200
 Correlation Functional Correlation     .... LYP
 LDA part of GGA corr.  LDAOpt          .... VWN-5
 Gradients option       PostSCFGGA      .... off
 Hybrid DFT is turned on
   Fraction HF Exchange ScalHFX         ....  0.200000
   Scaling of DF-GGA-X  ScalDFX         ....  0.720000
   Scaling of DF-GGA-C  ScalDFC         ....  0.810000
   Scaling of DF-LDA-C  ScalLDAC        ....  1.000000
   Perturbative correction              ....  0.000000
   Density functional embedding theory  .... OFF
   NL short-range parameter             ....  4.800000
 RI-approximation to the Coulomb term is turned on
   Number of AuxJ basis functions       .... 62
   RIJ-COSX (HFX calculated with COS-X)).... on


General Settings:
 Integral files         IntName         .... HCl_DFT
 Hartree-Fock type      HFTyp           .... RHF
 Total Charge           Charge          ....    0
 Multiplicity           Mult            ....    1
 Number of Electrons    NEL             ....   18
 Basis Dimension        Dim             ....   23
 Nuclear Repulsion      ENuc            ....      6.8891673746 Eh

Convergence Acceleration:
 DIIS                   CNVDIIS         .... on
   Start iteration      DIISMaxIt       ....    12
   Startup error        DIISStart       ....  0.200000
   # of expansion vecs  DIISMaxEq       ....     5
   Bias factor          DIISBfac        ....   1.050
   Max. coefficient     DIISMaxC        ....  10.000
 Trust-Rad. Augm. Hess. CNVTRAH         .... auto
   Auto Start mean grad. ratio tolernc. ....  1.125000
   Auto Start start iteration           ....    20
   Auto Start num. interpolation iter.  ....    10
   Max. Number of Micro iterations      ....    16
   Max. Number of Macro iterations      .... Maxiter - #DIIS iter
   Number of Davidson start vectors     ....     2
   Converg. threshold I  (grad. norm)   ....   1.000e-05
   Converg. threshold II (energy diff.) ....   1.000e-08
   Grad. Scal. Fac. for Micro threshold ....   0.100
   Minimum threshold for Micro iter.    ....   0.010
   NR start threshold (gradient norm)   ....   0.001
   Initial trust radius                 ....   0.400
   Minimum AH scaling param. (alpha)    ....   1.000
   Maximum AH scaling param. (alpha)    .... 1000.000
   Orbital update algorithm             .... Taylor
   White noise on init. David. guess    .... on
   Maximum white noise                  ....   0.010
   Quad. conv. algorithm                .... NR
 SOSCF                  CNVSOSCF        .... on
   Start iteration      SOSCFMaxIt      ....   150
   Startup grad/error   SOSCFStart      ....  0.003300
 Level Shifting         CNVShift        .... on
   Level shift para.    LevelShift      ....    0.2500
   Turn off err/grad.   ShiftErr        ....    0.0010
 Zerner damping         CNVZerner       .... off
 Static damping         CNVDamp         .... on
   Fraction old density DampFac         ....    0.7000
   Max. Damping (<1)    DampMax         ....    0.9800
   Min. Damping (>=0)   DampMin         ....    0.0000
   Turn off err/grad.   DampErr         ....    0.1000
 Fernandez-Rico         CNVRico         .... off

SCF Procedure:
 Maximum # iterations   MaxIter         ....   125
 SCF integral mode      SCFMode         .... Direct
   Integral package                     .... SHARK and LIBINT hybrid scheme
 Reset frequency        DirectResetFreq ....    20
 Integral Threshold     Thresh          ....  2.500e-11 Eh
 Primitive CutOff       TCut            ....  2.500e-12 Eh

Convergence Tolerance:
 Convergence Check Mode ConvCheckMode   .... Total+1el-Energy
 Convergence forced     ConvForced      .... 0
 Energy Change          TolE            ....  1.000e-08 Eh
 1-El. energy change                    ....  1.000e-05 Eh
 Orbital Gradient       TolG            ....  1.000e-05
 Orbital Rotation angle TolX            ....  1.000e-05
 DIIS Error             TolErr          ....  5.000e-07


Diagonalization of the overlap matrix:
Smallest eigenvalue                        ... 5.658e-02
Time for diagonalization                   ...    0.000 sec
Threshold for overlap eigenvalues          ... 1.000e-08
Number of eigenvalues below threshold      ... 0
Time for construction of square roots      ...    0.004 sec
Total time needed                          ...    0.004 sec

SHARK General Contraction Test:  Segmented basis detected
   -> Pre-screening matrix found on disk - Trying to read with NShells=11
   -> Passing Pre-screening matrix on to SHARK ...ok
   -> Leaving CheckPreScreeningMatrix
----------------------
SHARK INTEGRAL PACKAGE
----------------------

Number of atoms                             ...      2
Number of basis functions                   ...     23
Number of shells                            ...     11
Maximum angular momentum                    ...      2
Integral batch strategy                     ... SHARK/LIBINT Hybrid
RI-J (if used) integral strategy            ... SPLIT-RIJ (Revised 2003 algorithm where possible)
Printlevel                                  ...      2
Contraction scheme used                     ... SEGMENTED contraction
Coulomb Range Separation                    ... NOT USED
Exchange Range Separation                   ... NOT USED
Finite Nucleus Model                        ... NOT USED
Auxiliary Coulomb fitting basis             ... AVAILABLE
   # of basis functions in Aux-J            ...     62
   # of shells in Aux-J                     ...     22
   Maximum angular momentum in Aux-J        ...      4
Auxiliary J/K fitting basis                 ... NOT available
Auxiliary Correlation fitting basis         ... NOT available
Auxiliary 'external' fitting basis          ... NOT available
Integral threshold                          ...     2.500000e-11
Primitive cut-off                           ...     2.500000e-12
Primitive pair pre-selection threshold      ...     2.500000e-12

Time for model grid setup =    0.086 sec

------------------------------
INITIAL GUESS: MODEL POTENTIAL
------------------------------
Loading Hartree-Fock densities                     ... done
Calculating cut-offs                               ... done
Initializing the effective Hamiltonian             ... done
Setting up the integral package (SHARK)            ... done
Starting the Coulomb interaction                   ...     -> Generating integrals - 
    -> L=0 0 :     0.001 sec done=       441 skipped=         0 prim-skipped=         0
    -> L=1 0 :     0.001 sec done=       504 skipped=         0 prim-skipped=         0
    -> L=1 1 :     0.000 sec done=       210 skipped=         0 prim-skipped=         0
    -> L=2 0 :     0.000 sec done=       126 skipped=         0 prim-skipped=         0
    -> L=2 1 :     0.000 sec done=        84 skipped=         0 prim-skipped=         0
    -> L=2 2 :     0.000 sec done=        21 skipped=         0 prim-skipped=         0
done (   0.0 sec)
Reading the grid                                   ... done
Mapping shells                                     ... done
Starting the XC term evaluation                    ... done (   0.0 sec)
  promolecular density results
     # of electrons  =     17.999579849
     EX              =    -27.814136290
     EC              =     -0.724524412
     EX+EC           =    -28.538660701
Transforming the Hamiltonian                       ... done (   0.0 sec)
Diagonalizing the Hamiltonian                      ... done (   0.0 sec)
Back transforming the eigenvectors                 ... done (   0.0 sec)
Now organizing SCF variables                       ... done
                      ------------------
                      INITIAL GUESS DONE (   0.2 sec)
                      ------------------
-------------------
DFT GRID GENERATION
-------------------

General Integration Accuracy     IntAcc      ... 4.388
Radial Grid Type                 RadialGrid  ... OptM3 with GC (2021)
Angular Grid (max. ang.)         AngularGrid ... 4 (Lebedev-302)
Angular grid pruning method      GridPruning ... 4 (adaptive)
Weight generation scheme         WeightScheme... Becke
Basis function cutoff            BFCut       ... 1.0000e-11
Integration weight cutoff        WCut        ... 1.0000e-14
Angular grids for H and He will be reduced by one unit
Partially contracted basis set               ... off
Rotationally invariant grid construction     ... off

Total number of grid points                  ...    10685
Total number of batches                      ...      168
Average number of points per batch           ...       63
Average number of grid points per atom       ...     5342
Time for grid setup =    0.204 sec

--------------------
COSX GRID GENERATION
--------------------

GRIDX 1
-------
General Integration Accuracy     IntAcc      ... 3.816
Radial Grid Type                 RadialGrid  ... OptM3 with GC (2021)
Angular Grid (max. ang.)         AngularGrid ... 1 (Lebedev-50)
Angular grid pruning method      GridPruning ... 4 (adaptive)
Weight generation scheme         WeightScheme... Becke
Basis function cutoff            BFCut       ... 1.0000e-11
Integration weight cutoff        WCut        ... 1.0000e-14
Angular grids for H and He will be reduced by one unit
Partially contracted basis set               ... on
Rotationally invariant grid construction     ... off

Total number of grid points                  ...     1280
Total number of batches                      ...       21
Average number of points per batch           ...       60
Average number of grid points per atom       ...      640
UseSFitting                                  ... on

GRIDX 2
-------
General Integration Accuracy     IntAcc      ... 4.020
Radial Grid Type                 RadialGrid  ... OptM3 with GC (2021)
Angular Grid (max. ang.)         AngularGrid ... 2 (Lebedev-110)
Angular grid pruning method      GridPruning ... 4 (adaptive)
Weight generation scheme         WeightScheme... Becke
Basis function cutoff            BFCut       ... 1.0000e-11
Integration weight cutoff        WCut        ... 1.0000e-14
Angular grids for H and He will be reduced by one unit
Partially contracted basis set               ... on
Rotationally invariant grid construction     ... off

Total number of grid points                  ...     2782
Total number of batches                      ...       45
Average number of points per batch           ...       61
Average number of grid points per atom       ...     1391
UseSFitting                                  ... on

GRIDX 3
-------
General Integration Accuracy     IntAcc      ... 4.338
Radial Grid Type                 RadialGrid  ... OptM3 with GC (2021)
Angular Grid (max. ang.)         AngularGrid ... 3 (Lebedev-194)
Angular grid pruning method      GridPruning ... 4 (adaptive)
Weight generation scheme         WeightScheme... Becke
Basis function cutoff            BFCut       ... 1.0000e-11
Integration weight cutoff        WCut        ... 1.0000e-14
Angular grids for H and He will be reduced by one unit
Partially contracted basis set               ... on
Rotationally invariant grid construction     ... off

Total number of grid points                  ...     6811
Total number of batches                      ...      108
Average number of points per batch           ...       63
Average number of grid points per atom       ...     3406
UseSFitting                                  ... on

Time for X-Grid setup             =    0.207 sec


--------------------
CPCM SOLVATION MODEL
--------------------
CPCM parameters:
  Epsilon                                         ...      69.0000
  Refrac                                          ...       1.3400
  Rsolv                                           ...       1.3000
  Surface type                                    ... GAUSSIAN VDW
  Epsilon function type                           ...         CPCM
Radii:
 Radius for Cl used is    3.9684 Bohr (=   2.1000 Ang.)
 Radius for H  used is    2.4944 Bohr (=   1.3200 Ang.)
Calculating surface                               ...        done! (  0.0s)
GEPOL surface points                              ...          166
GEPOL Volume                                      ...     272.0066
GEPOL Surface-area                                ...     205.1758
Calculating surface distance matrix               ...        done! (  0.0s)
Performing Cholesky decomposition & store         ...        done! (  0.1s)
Overall time for CPCM initialization              ...                 0.1s
--------------
SCF ITERATIONS
--------------
               ***  Starting incremental Fock matrix formation  ***
==>> SHARK/AuxDens: NDens=1 Thresh =     2.500000e-11 TCut=    2.500000e-12 Lmax=2 LmaxAux=4
    -> Making Hermite density - ok     0.000 sec
    -> Making Aux-basis density - (lmax=2)
    -> L=0 0:    0.000 sec done=       462 (100.0%) skipped=         0 
    -> L=1 0:    0.000 sec done=       528 (100.0%) skipped=         0 
    -> L=1 1:    0.000 sec done=       220 (100.0%) skipped=         0 
    -> L=2 0:    0.000 sec done=       132 (100.0%) skipped=         0 
    -> L=2 1:    0.000 sec done=        88 (100.0%) skipped=         0 
    -> L=2 2:    0.000 sec done=        22 (100.0%) skipped=         0 
    -> Aux basis density formed in    0.0 sec
    -> Solving linear equations - ok (   0.0 sec)
        Auxbasis Hermite Density:
        P|s>                     ...  0.000
        P|p>                     ...  0.000
        P|d>                     ...  0.000
        P|f>                     ...  0.000
        P|g>                     ...  0.000
        Building the Coulomb matrix: 
        J|ss>                          ... done (  0.0 sec) ndone=     4007 nskipped1=        0 nskipped2=       18
        J|ps>                          ... done (  0.0 sec) ndone=     3780 nskipped1=        0 nskipped2=        0
        J|pp>                          ... done (  0.0 sec) ndone=     1610 nskipped1=        0 nskipped2=        0
        J|ds>                          ... done (  0.0 sec) ndone=      490 nskipped1=        0 nskipped2=        0
        J|dp>                          ... done (  0.0 sec) ndone=      280 nskipped1=        0 nskipped2=        0
        J|dd>                          ... done (  0.0 sec) ndone=       35 nskipped1=        0 nskipped2=        0
        Coulomb matrix built in   0.0 sec

        Total time for Split-RI-J                ...    0.004 sec
          (0) Prelude                            ...    0.000 sec
          (1) Hermite density                    ...    0.000 sec
          (2) Aux basis density                  ...    0.000 sec (inner=  0.0)
          (3) Linear equation solution           ...    0.000 sec
          (4) J-Matrix construction              ...    0.001 sec (inner=  0.0)
        ---------------------------------------------------------

                         ----------------------------
                         !        ITERATION     0   !
                         ----------------------------
   Total Energy        :    -460.599287933236 Eh
   Energy Change       :    -460.599287933236 Eh
   MAX-DP              :       0.043831887099
   RMS-DP              :       0.003282046278
   Actual Damping      :       0.7000
   Actual Level Shift  :       0.2500 Eh
   Int. Num. El.       :    18.00000042 (UP=    9.00000021 DN=    9.00000021)
   Exchange            :   -22.17923874
   Correlation         :    -0.85523253

==>> SHARK/AuxDens: NDens=1 Thresh =     2.500000e-11 TCut=    2.500000e-12 Lmax=2 LmaxAux=4
    -> Making Hermite density - ok     0.000 sec
    -> Making Aux-basis density - (lmax=2)
    -> L=0 0:    0.000 sec done=       462 (100.0%) skipped=         0 
    -> L=1 0:    0.000 sec done=       528 (100.0%) skipped=         0 
    -> L=1 1:    0.000 sec done=       220 (100.0%) skipped=         0 
    -> L=2 0:    0.000 sec done=       132 (100.0%) skipped=         0 
    -> L=2 1:    0.000 sec done=        88 (100.0%) skipped=         0 
    -> L=2 2:    0.000 sec done=        22 (100.0%) skipped=         0 
    -> Aux basis density formed in    0.0 sec
    -> Solving linear equations - ok (   0.0 sec)
        Auxbasis Hermite Density:
        P|s>                     ...  0.000
        P|p>                     ...  0.000
        P|d>                     ...  0.000
        P|f>                     ...  0.000
        P|g>                     ...  0.000
        Building the Coulomb matrix: 
        J|ss>                          ... done (  0.0 sec) ndone=     4007 nskipped1=        0 nskipped2=       18
        J|ps>                          ... done (  0.0 sec) ndone=     3780 nskipped1=        0 nskipped2=        0
        J|pp>                          ... done (  0.0 sec) ndone=     1610 nskipped1=        0 nskipped2=        0
        J|ds>                          ... done (  0.0 sec) ndone=      490 nskipped1=        0 nskipped2=        0
        J|dp>                          ... done (  0.0 sec) ndone=      280 nskipped1=        0 nskipped2=        0
        J|dd>                          ... done (  0.0 sec) ndone=       35 nskipped1=        0 nskipped2=        0
        Coulomb matrix built in   0.0 sec

        Total time for Split-RI-J                ...    0.003 sec
          (0) Prelude                            ...    0.000 sec
          (1) Hermite density                    ...    0.000 sec
          (2) Aux basis density                  ...    0.000 sec (inner=  0.0)
          (3) Linear equation solution           ...    0.000 sec
          (4) J-Matrix construction              ...    0.001 sec (inner=  0.0)
        ---------------------------------------------------------
                      *** Initiating the SOSCF procedure ***
                      *** Re-Reading the Fockian *** 
                      *** Removing any level shift *** 

                         ----------------------------
                         !        ITERATION     1   !
                         ----------------------------
   Total Energy        :    -460.601935986087 Eh
   Energy Change       :      -0.002648052851 Eh
   MAX-DP              :       0.101416570031
   RMS-DP              :       0.007670012713
   Orbital gradient    :       0.002480623157
   Orbital Rotation    :       0.002480623157
   Actual Damping      :       0.0000
   Int. Num. El.       :    18.00000042 (UP=    9.00000021 DN=    9.00000021)
   Exchange            :   -22.15529708
   Correlation         :    -0.85419882

               *** Restarting incremental Fock matrix formation ***
==>> SHARK/AuxDens: NDens=1 Thresh =     2.500000e-11 TCut=    2.500000e-12 Lmax=2 LmaxAux=4
    -> Making Hermite density - ok     0.000 sec
    -> Making Aux-basis density - (lmax=2)
    -> L=0 0:    0.000 sec done=       462 (100.0%) skipped=         0 
    -> L=1 0:    0.000 sec done=       528 (100.0%) skipped=         0 
    -> L=1 1:    0.000 sec done=       220 (100.0%) skipped=         0 
    -> L=2 0:    0.000 sec done=       132 (100.0%) skipped=         0 
    -> L=2 1:    0.000 sec done=        88 (100.0%) skipped=         0 
    -> L=2 2:    0.000 sec done=        22 (100.0%) skipped=         0 
    -> Aux basis density formed in    0.0 sec
    -> Solving linear equations - ok (   0.0 sec)
        Auxbasis Hermite Density:
        P|s>                     ...  0.000
        P|p>                     ...  0.000
        P|d>                     ...  0.000
        P|f>                     ...  0.000
        P|g>                     ...  0.000
        Building the Coulomb matrix: 
        J|ss>                          ... done (  0.0 sec) ndone=     4007 nskipped1=        0 nskipped2=       18
        J|ps>                          ... done (  0.0 sec) ndone=     3780 nskipped1=        0 nskipped2=        0
        J|pp>                          ... done (  0.0 sec) ndone=     1610 nskipped1=        0 nskipped2=        0
        J|ds>                          ... done (  0.0 sec) ndone=      490 nskipped1=        0 nskipped2=        0
        J|dp>                          ... done (  0.0 sec) ndone=      280 nskipped1=        0 nskipped2=        0
        J|dd>                          ... done (  0.0 sec) ndone=       35 nskipped1=        0 nskipped2=        0
        Coulomb matrix built in   0.0 sec

        Total time for Split-RI-J                ...    0.003 sec
          (0) Prelude                            ...    0.000 sec
          (1) Hermite density                    ...    0.000 sec
          (2) Aux basis density                  ...    0.000 sec (inner=  0.0)
          (3) Linear equation solution           ...    0.000 sec
          (4) J-Matrix construction              ...    0.001 sec (inner=  0.0)
        ---------------------------------------------------------

                         ----------------------------
                         !        ITERATION     2   !
                         ----------------------------
   Total Energy        :    -460.604608229437 Eh
   Energy Change       :      -0.002672243350 Eh
   MAX-DP              :       0.068527075566
   RMS-DP              :       0.005657732942
   Orbital gradient    :       0.015913073830
   Orbital Rotation    :       0.016809121815
   Actual Damping      :       0.0000
   Int. Num. El.       :    18.00000043 (UP=    9.00000021 DN=    9.00000021)
   Exchange            :   -22.10081983
   Correlation         :    -0.85174251

==>> SHARK/AuxDens: NDens=1 Thresh =     2.500000e-11 TCut=    2.500000e-12 Lmax=2 LmaxAux=4
    -> Making Hermite density - ok     0.000 sec
    -> Making Aux-basis density - (lmax=2)
    -> L=0 0:    0.001 sec done=       462 (100.0%) skipped=         0 
    -> L=1 0:    0.001 sec done=       528 (100.0%) skipped=         0 
    -> L=1 1:    0.001 sec done=       220 (100.0%) skipped=         0 
    -> L=2 0:    0.000 sec done=       132 (100.0%) skipped=         0 
    -> L=2 1:    0.000 sec done=        88 (100.0%) skipped=         0 
    -> L=2 2:    0.000 sec done=        22 (100.0%) skipped=         0 
    -> Aux basis density formed in    0.0 sec
    -> Solving linear equations - ok (   0.0 sec)
        Auxbasis Hermite Density:
        P|s>                     ...  0.000
        P|p>                     ...  0.000
        P|d>                     ...  0.000
        P|f>                     ...  0.000
        P|g>                     ...  0.000
        Building the Coulomb matrix: 
        J|ss>                          ... done (  0.0 sec) ndone=     4007 nskipped1=        0 nskipped2=       18
        J|ps>                          ... done (  0.0 sec) ndone=     3780 nskipped1=        0 nskipped2=        0
        J|pp>                          ... done (  0.0 sec) ndone=     1610 nskipped1=        0 nskipped2=        0
        J|ds>                          ... done (  0.0 sec) ndone=      490 nskipped1=        0 nskipped2=        0
        J|dp>                          ... done (  0.0 sec) ndone=      280 nskipped1=        0 nskipped2=        0
        J|dd>                          ... done (  0.0 sec) ndone=       35 nskipped1=        0 nskipped2=        0
        Coulomb matrix built in   0.0 sec

        Total time for Split-RI-J                ...    0.006 sec
          (0) Prelude                            ...    0.000 sec
          (1) Hermite density                    ...    0.000 sec
          (2) Aux basis density                  ...    0.000 sec (inner=  0.0)
          (3) Linear equation solution           ...    0.000 sec
          (4) J-Matrix construction              ...    0.002 sec (inner=  0.0)
        ---------------------------------------------------------

                         ----------------------------
                         !        ITERATION     3   !
                         ----------------------------
   Total Energy        :    -460.605033991627 Eh
   Energy Change       :      -0.000425762190 Eh
   MAX-DP              :       0.029675979791
   RMS-DP              :       0.002458025666
   Orbital gradient    :       0.011965143646
   Orbital Rotation    :       0.007767900202
   Actual Damping      :       0.0000
   Int. Num. El.       :    18.00000042 (UP=    9.00000021 DN=    9.00000021)
   Exchange            :   -22.14582524
   Correlation         :    -0.85356082

==>> SHARK/AuxDens: NDens=1 Thresh =     2.500000e-11 TCut=    2.500000e-12 Lmax=2 LmaxAux=4
    -> Making Hermite density - ok     0.000 sec
    -> Making Aux-basis density - (lmax=2)
    -> L=0 0:    0.000 sec done=       462 (100.0%) skipped=         0 
    -> L=1 0:    0.000 sec done=       528 (100.0%) skipped=         0 
    -> L=1 1:    0.000 sec done=       220 (100.0%) skipped=         0 
    -> L=2 0:    0.000 sec done=       132 (100.0%) skipped=         0 
    -> L=2 1:    0.000 sec done=        88 (100.0%) skipped=         0 
    -> L=2 2:    0.000 sec done=        22 (100.0%) skipped=         0 
    -> Aux basis density formed in    0.0 sec
    -> Solving linear equations - ok (   0.0 sec)
        Auxbasis Hermite Density:
        P|s>                     ...  0.000
        P|p>                     ...  0.000
        P|d>                     ...  0.000
        P|f>                     ...  0.000
        P|g>                     ...  0.000
        Building the Coulomb matrix: 
        J|ss>                          ... done (  0.0 sec) ndone=     4007 nskipped1=        0 nskipped2=       18
        J|ps>                          ... done (  0.0 sec) ndone=     3780 nskipped1=        0 nskipped2=        0
        J|pp>                          ... done (  0.0 sec) ndone=     1610 nskipped1=        0 nskipped2=        0
        J|ds>                          ... done (  0.0 sec) ndone=      490 nskipped1=        0 nskipped2=        0
        J|dp>                          ... done (  0.0 sec) ndone=      280 nskipped1=        0 nskipped2=        0
        J|dd>                          ... done (  0.0 sec) ndone=       35 nskipped1=        0 nskipped2=        0
        Coulomb matrix built in   0.0 sec

        Total time for Split-RI-J                ...    0.003 sec
          (0) Prelude                            ...    0.000 sec
          (1) Hermite density                    ...    0.000 sec
          (2) Aux basis density                  ...    0.000 sec (inner=  0.0)
          (3) Linear equation solution           ...    0.000 sec
          (4) J-Matrix construction              ...    0.001 sec (inner=  0.0)
        ---------------------------------------------------------

                         ----------------------------
                         !        ITERATION     4   !
                         ----------------------------
   Total Energy        :    -460.605650127534 Eh
   Energy Change       :      -0.000616135907 Eh
   MAX-DP              :       0.000347798404
   RMS-DP              :       0.000050296810
   Orbital gradient    :       0.000274570709
   Orbital Rotation    :       0.000302071710
   Actual Damping      :       0.0000
   Int. Num. El.       :    18.00000043 (UP=    9.00000021 DN=    9.00000021)
   Exchange            :   -22.12631506
   Correlation         :    -0.85278119

==>> SHARK/AuxDens: NDens=1 Thresh =     2.500000e-11 TCut=    2.500000e-12 Lmax=2 LmaxAux=4
    -> Making Hermite density - ok     0.000 sec
    -> Making Aux-basis density - (lmax=2)
    -> L=0 0:    0.000 sec done=       462 (100.0%) skipped=         0 
    -> L=1 0:    0.001 sec done=       528 (100.0%) skipped=         0 
    -> L=1 1:    0.000 sec done=       220 (100.0%) skipped=         0 
    -> L=2 0:    0.000 sec done=       132 (100.0%) skipped=         0 
    -> L=2 1:    0.000 sec done=        88 (100.0%) skipped=         0 
    -> L=2 2:    0.000 sec done=        22 (100.0%) skipped=         0 
    -> Aux basis density formed in    0.0 sec
    -> Solving linear equations - ok (   0.0 sec)
        Auxbasis Hermite Density:
        P|s>                     ...  0.000
        P|p>                     ...  0.000
        P|d>                     ...  0.000
        P|f>                     ...  0.000
        P|g>                     ...  0.000
        Building the Coulomb matrix: 
        J|ss>                          ... done (  0.0 sec) ndone=     4007 nskipped1=        0 nskipped2=       18
        J|ps>                          ... done (  0.0 sec) ndone=     3780 nskipped1=        0 nskipped2=        0
        J|pp>                          ... done (  0.0 sec) ndone=     1610 nskipped1=        0 nskipped2=        0
        J|ds>                          ... done (  0.0 sec) ndone=      490 nskipped1=        0 nskipped2=        0
        J|dp>                          ... done (  0.0 sec) ndone=      280 nskipped1=        0 nskipped2=        0
        J|dd>                          ... done (  0.0 sec) ndone=       35 nskipped1=        0 nskipped2=        0
        Coulomb matrix built in   0.0 sec

        Total time for Split-RI-J                ...    0.004 sec
          (0) Prelude                            ...    0.000 sec
          (1) Hermite density                    ...    0.000 sec
          (2) Aux basis density                  ...    0.000 sec (inner=  0.0)
          (3) Linear equation solution           ...    0.000 sec
          (4) J-Matrix construction              ...    0.001 sec (inner=  0.0)
        ---------------------------------------------------------

                         ----------------------------
                         !        ITERATION     5   !
                         ----------------------------
   Total Energy        :    -460.605650355963 Eh
   Energy Change       :      -0.000000228429 Eh
   MAX-DP              :       0.000141867241
   RMS-DP              :       0.000020457078
   Orbital gradient    :       0.000171310283
   Orbital Rotation    :       0.000114386961
   Actual Damping      :       0.0000
   Int. Num. El.       :    18.00000043 (UP=    9.00000021 DN=    9.00000021)
   Exchange            :   -22.12613143
   Correlation         :    -0.85277388

==>> SHARK/AuxDens: NDens=1 Thresh =     2.500000e-11 TCut=    2.500000e-12 Lmax=2 LmaxAux=4
    -> Making Hermite density - ok     0.000 sec
    -> Making Aux-basis density - (lmax=2)
    -> L=0 0:    0.001 sec done=       462 (100.0%) skipped=         0 
    -> L=1 0:    0.001 sec done=       528 (100.0%) skipped=         0 
    -> L=1 1:    0.000 sec done=       220 (100.0%) skipped=         0 
    -> L=2 0:    0.000 sec done=       132 (100.0%) skipped=         0 
    -> L=2 1:    0.000 sec done=        88 (100.0%) skipped=         0 
    -> L=2 2:    0.000 sec done=        22 (100.0%) skipped=         0 
    -> Aux basis density formed in    0.0 sec
    -> Solving linear equations - ok (   0.0 sec)
        Auxbasis Hermite Density:
        P|s>                     ...  0.000
        P|p>                     ...  0.000
        P|d>                     ...  0.000
        P|f>                     ...  0.000
        P|g>                     ...  0.000
        Building the Coulomb matrix: 
        J|ss>                          ... done (  0.0 sec) ndone=     4007 nskipped1=        0 nskipped2=       18
        J|ps>                          ... done (  0.0 sec) ndone=     3780 nskipped1=        0 nskipped2=        0
        J|pp>                          ... done (  0.0 sec) ndone=     1610 nskipped1=        0 nskipped2=        0
        J|ds>                          ... done (  0.0 sec) ndone=      490 nskipped1=        0 nskipped2=        0
        J|dp>                          ... done (  0.0 sec) ndone=      280 nskipped1=        0 nskipped2=        0
        J|dd>                          ... done (  0.0 sec) ndone=       35 nskipped1=        0 nskipped2=        0
        Coulomb matrix built in   0.0 sec

        Total time for Split-RI-J                ...    0.005 sec
          (0) Prelude                            ...    0.000 sec
          (1) Hermite density                    ...    0.000 sec
          (2) Aux basis density                  ...    0.000 sec (inner=  0.0)
          (3) Linear equation solution           ...    0.000 sec
          (4) J-Matrix construction              ...    0.002 sec (inner=  0.0)
        ---------------------------------------------------------
                  ***Gradient check signals convergence***
              ***Rediagonalizing the Fockian in SOSCF/NRSCF***

               *****************************************************
               *                     SUCCESS                       *
               *           SCF CONVERGED AFTER   6 CYCLES          *
               *****************************************************

Old exchange energy                            =     -5.578037854 Eh
New exchange energy                            =     -5.578039258 Eh
Exchange energy change after final integration =     -0.000001404 Eh
Total energy after final integration           =   -460.605651914 Eh
Final COS-X integration done in                =     0.696 sec

----------------
TOTAL SCF ENERGY
----------------

Total Energy       :         -460.60565191 Eh          -12533.71699 eV

Components:
Nuclear Repulsion  :            6.88916737 Eh             187.46377 eV
Electronic Energy  :         -467.49481929 Eh          -12721.18077 eV
One Electron Energy:         -649.76071197 Eh          -17680.88785 eV
Two Electron Energy:          182.26589268 Eh            4959.70709 eV
Max COSX asymmetry :            0.00000027 Eh               0.00001 eV
CPCM Dielectric    :           -0.00530029 Eh              -0.14423 eV

Virial components:
Potential Energy   :         -920.24801742 Eh          -25041.22163 eV
Kinetic Energy     :          459.64236550 Eh           12507.50463 eV
Virial Ratio       :            2.00209573


DFT components:
N(Alpha)           :        9.000000212778 electrons
N(Beta)            :        9.000000212778 electrons
N(Total)           :       18.000000425556 electrons
E(X)               :      -22.126212427595 Eh       
E(C)               :       -0.852776938144 Eh       
E(XC)              :      -22.978989365739 Eh       
DFET-embed. en.    :        0.000000000000 Eh       
CPCM Solvation Model Properties:
Surface-charge          :           -0.00444481
Charge-correction       :            0.00007565 Eh               0.00206 eV
Free-energy (cav+disp)  :  This term is not implemented in the current solvation scheme

---------------
SCF CONVERGENCE
---------------

  Last Energy change         ...   -1.5434e-07  Tolerance :   1.0000e-08
  Last MAX-Density change    ...    1.9984e-15  Tolerance :   1.0000e-07
  Last RMS-Density change    ...    1.6204e-16  Tolerance :   5.0000e-09
  Last Orbital Gradient      ...    9.5310e-07  Tolerance :   1.0000e-05
  Last Orbital Rotation      ...    1.3378e-06  Tolerance :   1.0000e-05

             **** THE GBW FILE WAS UPDATED (HCl_DFT.gbw) ****
             **** DENSITY HCl_DFT.scfp WAS UPDATED ****
             **** ENERGY FILE WAS UPDATED (HCl_DFT.en.tmp) ****
             **** THE GBW FILE WAS UPDATED (HCl_DFT.gbw) ****
             **** DENSITY HCl_DFT.scfp WAS UPDATED ****
----------------
ORBITAL ENERGIES
----------------

  NO   OCC          E(Eh)            E(eV) 
   0   2.0000    -101.493244     -2761.7716 
   1   2.0000      -9.446905      -257.0633 
   2   2.0000      -7.215795      -196.3518 
   3   2.0000      -7.206270      -196.0926 
   4   2.0000      -7.206270      -196.0926 
   5   2.0000      -0.820395       -22.3241 
   6   2.0000      -0.448515       -12.2047 
   7   2.0000      -0.313478        -8.5302 
   8   2.0000      -0.313478        -8.5302 
   9   0.0000       0.038625         1.0510 
  10   0.0000       0.345987         9.4148 
  11   0.0000       0.527877        14.3643 
  12   0.0000       0.706669        19.2294 
  13   0.0000       0.706669        19.2294 
  14   0.0000       0.790204        21.5025 
  15   0.0000       0.790211        21.5027 
  16   0.0000       0.853268        23.2186 
  17   0.0000       0.870690        23.6927 
  18   0.0000       0.870690        23.6927 
  19   0.0000       1.147568        31.2269 
  20   0.0000       1.571757        42.7697 
  21   0.0000       1.571757        42.7697 
  22   0.0000       2.238626        60.9161 

                    ********************************
                    * MULLIKEN POPULATION ANALYSIS *
                    ********************************

-----------------------
MULLIKEN ATOMIC CHARGES
-----------------------
   0 Cl:   -0.186450
   1 H :    0.186450
Sum of atomic charges:    0.0000000

--------------------------------
MULLIKEN REDUCED ORBITAL CHARGES
--------------------------------
  0 Cls       :     5.930638  s :     5.930638
      pz      :     3.990548  p :    11.239007
      px      :     3.257912
      py      :     3.990548
      dz2     :     0.003855  d :     0.016804
      dxz     :     0.000693
      dyz     :     0.000000
      dx2y2   :     0.011564
      dxy     :     0.000693
  1 H s       :     0.768924  s :     0.768924
      pz      :     0.008760  p :     0.044626
      px      :     0.027107
      py      :     0.008760

------------------------
MULLIKEN OVERLAP CHARGES
------------------------
B(  0-Cl,  1-H ) :   0.5983 


                     *******************************
                     * LOEWDIN POPULATION ANALYSIS *
                     *******************************

----------------------
LOEWDIN ATOMIC CHARGES
----------------------
   0 Cl:   -0.049048
   1 H :    0.049048

-------------------------------
LOEWDIN REDUCED ORBITAL CHARGES
-------------------------------
  0 Cls       :     5.797920  s :     5.797920
      pz      :     3.976331  p :    11.229777
      px      :     3.277115
      py      :     3.976331
      dz2     :     0.005147  d :     0.021351
      dxz     :     0.000382
      dyz     :     0.000000
      dx2y2   :     0.015441
      dxy     :     0.000382
  1 H s       :     0.840231  s :     0.840231
      pz      :     0.023287  p :     0.110721
      px      :     0.064146
      py      :     0.023287

---------------------------------
LOEWDIN BOND ORDERS (THRESH 0.050000)
---------------------------------
B(  0-Cl,  1-H ) :   1.1424 

------------------------------------------
LOEWDIN REDUCED ORBITAL POPULATIONS PER MO
-------------------------------------------
THRESHOLD FOR PRINTING IS 0.1%
                      0         1         2         3         4         5   
                 -101.49324  -9.44690  -7.21580  -7.20627  -7.20627  -0.82040
                   2.00000   2.00000   2.00000   2.00000   2.00000   2.00000
                  --------  --------  --------  --------  --------  --------
 0 Cl s             100.0      99.9       0.0       0.0       0.0      80.2
 0 Cl pz              0.0       0.0       0.0      99.9       0.1       0.0
 0 Cl px              0.0       0.0     100.0       0.0       0.0       0.8
 0 Cl py              0.0       0.0       0.0       0.1      99.9       0.0
 1 H  s               0.0       0.1       0.0       0.0       0.0      16.3
 1 H  px              0.0       0.0       0.0       0.0       0.0       2.6

                      6         7         8         9        10        11   
                  -0.44852  -0.31348  -0.31348   0.03863   0.34599   0.52788
                   2.00000   2.00000   2.00000   0.00000   0.00000   0.00000
                  --------  --------  --------  --------  --------  --------
 0 Cl s               9.8       0.0       0.0       6.0       3.1      89.8
 0 Cl pz              0.0       0.0      98.8       0.0       0.0       0.0
 0 Cl px             63.0       0.0       0.0      23.6       5.4       5.5
 0 Cl py              0.0      98.8       0.0       0.0       0.0       0.0
 0 Cl dz2             0.2       0.0       0.0       1.4       6.1       0.0
 0 Cl dx2y2           0.7       0.0       0.0       4.1      18.3       0.1
 1 H  s              25.6       0.0       0.0      55.3      66.7       4.1
 1 H  pz              0.0       0.0       1.2       0.0       0.0       0.0
 1 H  px              0.6       0.0       0.0       9.6       0.4       0.4
 1 H  py              0.0       1.2       0.0       0.0       0.0       0.0

                     12        13        14        15        16        17   
                   0.70667   0.70667   0.79020   0.79021   0.85327   0.87069
                   0.00000   0.00000   0.00000   0.00000   0.00000   0.00000
                  --------  --------  --------  --------  --------  --------
 0 Cl s               0.0       0.0       0.0       0.0       1.7       0.0
 0 Cl pz              0.3       0.0       0.0       0.0       0.0      98.6
 0 Cl px              0.0       0.0       0.0       0.0      57.5       0.0
 0 Cl py              0.0       0.3       0.0       0.0       0.0       0.2
 0 Cl dz2             0.0       0.0      75.0       0.0       4.5       0.0
 0 Cl dxz            86.1       0.0       0.0       0.0       0.0       0.2
 0 Cl dyz             0.0       0.0       0.0     100.0       0.0       0.0
 0 Cl dx2y2           0.0       0.0      25.0       0.0      13.6       0.0
 0 Cl dxy             0.0      86.1       0.0       0.0       0.0       0.0
 1 H  s               0.0       0.0       0.0       0.0      13.5       0.0
 1 H  pz             13.6       0.0       0.0       0.0       0.0       0.9
 1 H  px              0.0       0.0       0.0       0.0       9.1       0.0
 1 H  py              0.0      13.6       0.0       0.0       0.0       0.0

                     18        19        20        21        22   
                   0.87069   1.14757   1.57176   1.57176   2.23863
                   0.00000   0.00000   0.00000   0.00000   0.00000
                  --------  --------  --------  --------  --------
 0 Cl s               0.0       4.5       0.0       0.0       4.9
 0 Cl pz              0.2       0.0       0.0       2.1       0.0
 0 Cl px              0.0      35.0       0.0       0.0       9.2
 0 Cl py             98.6       0.0       2.1       0.0       0.0
 0 Cl dz2             0.0       9.7       0.0       0.0       3.0
 0 Cl dxz             0.0       0.0       0.2      13.5       0.0
 0 Cl dx2y2           0.0      29.2       0.0       0.0       8.9
 0 Cl dxy             0.2       0.0      13.5       0.2       0.0
 1 H  s               0.0      12.5       0.0       0.0       5.9
 1 H  pz              0.0       0.0       1.1      83.2       0.0
 1 H  px              0.0       9.1       0.0       0.0      68.1
 1 H  py              0.9       0.0      83.2       1.1       0.0


                      *****************************
                      * MAYER POPULATION ANALYSIS *
                      *****************************

  NA   - Mulliken gross atomic population
  ZA   - Total nuclear charge
  QA   - Mulliken gross atomic charge
  VA   - Mayer's total valence
  BVA  - Mayer's bonded valence
  FA   - Mayer's free valence

  ATOM       NA         ZA         QA         VA         BVA        FA
  0 Cl    17.1864    17.0000    -0.1864     0.9668     0.9668     0.0000
  1 H      0.8136     1.0000     0.1864     0.9668     0.9668     0.0000

  Mayer bond orders larger than 0.100000
B(  0-Cl,  1-H ) :   0.9668 

-------
TIMINGS
-------

Total SCF time: 0 days 0 hours 0 min 6 sec 

Total time                  ....       6.902 sec
Sum of individual times     ....       6.397 sec  ( 92.7%)

Fock matrix formation       ....       5.719 sec  ( 82.9%)
  Split-RI-J                ....       0.447 sec  (  7.8% of F)
  Chain of spheres X        ....       2.390 sec  ( 41.8% of F)
  XC integration            ....       1.289 sec  ( 22.5% of F)
    Basis function eval.    ....       0.379 sec  ( 29.4% of XC)
    Density eval.           ....       0.205 sec  ( 15.9% of XC)
    XC-Functional eval.     ....       0.315 sec  ( 24.4% of XC)
    XC-Potential eval.      ....       0.115 sec  (  8.9% of XC)
Diagonalization             ....       0.001 sec  (  0.0%)
Density matrix formation    ....       0.000 sec  (  0.0%)
Population analysis         ....       0.086 sec  (  1.3%)
Initial guess               ....       0.091 sec  (  1.3%)
Orbital Transformation      ....       0.000 sec  (  0.0%)
Orbital Orthonormalization  ....       0.000 sec  (  0.0%)
DIIS solution               ....       0.000 sec  (  0.0%)
SOSCF solution              ....       0.003 sec  (  0.0%)
Grid generation             ....       0.497 sec  (  7.2%)

Maximum memory used throughout the entire SCF-calculation: 43.5 MB

-------------------------   --------------------
FINAL SINGLE POINT ENERGY      -460.605651914362
-------------------------   --------------------

------------------------------------------------------------------------------
                         ORCA SCF GRADIENT CALCULATION
------------------------------------------------------------------------------

SHARK General Contraction Test:  Segmented basis detected
   -> Pre-screening matrix found on disk - Trying to read with NShells=11
   -> Passing Pre-screening matrix on to SHARK ...ok
   -> Leaving CheckPreScreeningMatrix
----------------------
SHARK INTEGRAL PACKAGE
----------------------

Number of atoms                             ...      2
Number of basis functions                   ...     23
Number of shells                            ...     11
Maximum angular momentum                    ...      2
Integral batch strategy                     ... SHARK/LIBINT Hybrid
RI-J (if used) integral strategy            ... SPLIT-RIJ (Revised 2003 algorithm where possible)
Printlevel                                  ...      2
Contraction scheme used                     ... SEGMENTED contraction
Coulomb Range Separation                    ... NOT USED
Exchange Range Separation                   ... NOT USED
Finite Nucleus Model                        ... NOT USED
Auxiliary Coulomb fitting basis             ... AVAILABLE
   # of basis functions in Aux-J            ...     62
   # of shells in Aux-J                     ...     22
   Maximum angular momentum in Aux-J        ...      4
Auxiliary J/K fitting basis                 ... NOT available
Auxiliary Correlation fitting basis         ... NOT available
Auxiliary 'external' fitting basis          ... NOT available
Integral threshold                          ...     2.500000e-11
Primitive cut-off                           ...     2.500000e-12
Primitive pair pre-selection threshold      ...     2.500000e-12

 ... reading COSX grid (gridx3)
Gradient of the Kohn-Sham DFT energy:
Kohn-Sham wavefunction type      ... RKS
Hartree-Fock exchange scaling    ...    0.200
Number of operators              ...    1
Number of atoms                  ...    2
Basis set dimensions             ...   23
Integral neglect threshold       ... 2.5e-11
Integral primitive cutoff        ... 2.5e-12
SHARK Integral package           ... ON

Nuc. rep. gradient       (SHARK) ... done (  0.0 sec)
HCore & Overlap gradient (SHARK) ... done (  0.0 sec)
RI-J gradient            (SHARK) ... 
==>> SHARK/Split-RI-J/Grad: Thresh =     2.500000e-11 TCut=    2.500000e-12 Lmax=2 LmaxAux=4 UseGC=0 UseActualInts=0
==>> SHARK/AuxDens: NDens=1 Thresh =     2.500000e-11 TCut=    2.500000e-12 Lmax=2 LmaxAux=4
    -> Making Hermite density - ok     0.000 sec
    -> Making Aux-basis density - (lmax=2)
    -> L=0 0:    0.001 sec done=       462 (100.0%) skipped=         0 
    -> L=1 0:    0.001 sec done=       528 (100.0%) skipped=         0 
    -> L=1 1:    0.000 sec done=       220 (100.0%) skipped=         0 
    -> L=2 0:    0.000 sec done=       132 (100.0%) skipped=         0 
    -> L=2 1:    0.000 sec done=        88 (100.0%) skipped=         0 
    -> L=2 2:    0.000 sec done=        22 (100.0%) skipped=         0 
    -> Aux basis density formed in    0.0 sec
    -> Solving linear equations - ok (   0.0 sec)
    -> Making Gradient pre-screening matrices - done (  0.1 sec)
    -> Making Aux_E - done (  0.0 sec)
    -> Making two-index integral derivative - done (  0.0 sec)
    -> Making Aux_EP - done (  0.0 sec)
    -> Making three-index integral derivative
    -> L=0 0 :     0.001 sec done=       277 skipped=       185 prim-skipped=         0
    -> L=1 0 :     0.001 sec done=       314 skipped=       214 prim-skipped=         0
    -> L=1 1 :     0.001 sec done=       113 skipped=       107 prim-skipped=         0
    -> L=2 0 :     0.000 sec done=        64 skipped=        68 prim-skipped=         0
    -> L=2 1 :     0.001 sec done=        37 skipped=        51 prim-skipped=         0
    -> L=2 2 :     0.000 sec done=         5 skipped=        17 prim-skipped=         0
    -> Three index derivative done (  0.0 sec)
    -> SHARK RI-J gradient done in   0.2 sec
done (  0.2 sec)
COSX-gradient                    ... done (  0.5 sec)
Exchange-correlation gradient    ... done

------------------
CARTESIAN GRADIENT
------------------

   1   Cl  :   -0.006463921    0.000000007    0.000000004
   2   H   :    0.006456792   -0.000000000   -0.000000000

Difference to translation invariance:
           :   -0.0000071291    0.0000000066    0.0000000043

Difference to rotation invariance:
           :   -0.0000000008   -0.0000010234    0.0000002882

Norm of the cartesian gradient     ...    0.0091363257
RMS gradient                       ...    0.0037298893
MAX gradient                       ...    0.0064639214

-------
TIMINGS
-------

Total SCF gradient time            ...        1.790 sec

One electron gradient       ....       0.002 sec  (  0.1%)
RI-J Coulomb gradient       ....       0.198 sec  ( 11.1%)
COSX gradient               ....       0.499 sec  ( 27.9%)
XC gradient                 ....       0.393 sec  ( 21.9%)
CPCM gradient               ....       0.180 sec  ( 10.1%)
   A-Matrix (El+Nuc)        ....       0.001 sec  (  0.1%)
   Potential                ....       0.179 sec  ( 10.0%)

Maximum memory used throughout the entire SCFGRAD-calculation: 33.2 MB
------------------------------------------------------------------------------
                         ORCA GEOMETRY RELAXATION STEP
------------------------------------------------------------------------------

Reading the OPT-File                    .... done
Getting information on internals        .... done
Copying old internal coords+grads       .... done
Making the new internal coordinates     .... (new redundants).... done
Validating the new internal coordinates .... (new redundants).... done
Calculating the B-matrix                .... done
Calculating the G,G- and P matrices     .... done
Transforming gradient to internals      .... done
Projecting the internal gradient        .... done
Number of atoms                         ....   2
Number of internal coordinates          ....   1
Current Energy                          ....  -460.605651914 Eh
Current gradient norm                   ....     0.009136326 Eh/bohr
Maximum allowed component of the step   ....  0.300
Current trust radius                    ....  0.300
Evaluating the initial hessian          ....  (Almloef) done
Projecting the Hessian                  .... done
Forming the augmented Hessian           .... done
Diagonalizing the augmented Hessian     .... done
Last element of RFO vector              ....  0.999844071
Lowest eigenvalues of augmented Hessian:
 -0.000114100
Length of the computed step             ....  0.017661556
The final length of the internal step   ....  0.017661556
Converting the step to cartesian space:
 Initial RMS(Int)=    0.0176615564
Transforming coordinates:
 Iter   0:  RMS(Cart)=    0.0050984522 RMS(Int)=    0.0176615564
 Iter   1:  RMS(Cart)=    0.0000000000 RMS(Int)=    0.0000000000
done
Storing new coordinates                 .... done

                                .--------------------.
          ----------------------|Geometry convergence|-------------------------
          Item                value                   Tolerance       Converged
          ---------------------------------------------------------------------
          RMS gradient        0.0064603569            0.0001000000      NO
          MAX gradient        0.0064603569            0.0003000000      NO
          RMS step            0.0176615564            0.0020000000      NO
          MAX step            0.0176615564            0.0040000000      NO
          ........................................................
          Max(Bonds)      0.0093      Max(Angles)    0.00
          Max(Dihed)        0.00      Max(Improp)    0.00
          ---------------------------------------------------------------------

The optimization has not yet converged - more geometry cycles are needed


    ---------------------------------------------------------------------------
                         Redundant Internal Coordinates
                            (Angstroem and degrees)

        Definition                    Value    dE/dq     Step     New-Value
    ----------------------------------------------------------------------------
     1. B(H   1,Cl  0)                1.3058  0.006460 -0.0093    1.2965   
    ----------------------------------------------------------------------------

         *************************************************************
         *                GEOMETRY OPTIMIZATION CYCLE   2            *
         *************************************************************
---------------------------------
CARTESIAN COORDINATES (ANGSTROEM)
---------------------------------
  Cl     1.079293    0.020400    0.075330
  H      2.375767    0.020400    0.075330

----------------------------
CARTESIAN COORDINATES (A.U.)
----------------------------
  NO LB      ZA    FRAG     MASS         X           Y           Z
   0 Cl   17.0000    0    35.453    2.039568    0.038550    0.142353
   1 H     1.0000    0     1.008    4.489549    0.038550    0.142353

--------------------------------
INTERNAL COORDINATES (ANGSTROEM)
--------------------------------
 Cl     0   0   0     0.000000000000     0.00000000     0.00000000
 H      1   0   0     1.296473906869     0.00000000     0.00000000

---------------------------
INTERNAL COORDINATES (A.U.)
---------------------------
 Cl     0   0   0     0.000000000000     0.00000000     0.00000000
 H      1   0   0     2.449980623757     0.00000000     0.00000000

------------------------------------------------------------------------------
                   ___                                                        
                  /   \      - P O W E R E D   B Y -                         
                 /     \                                                     
                 |  |  |   _    _      __       _____    __    __             
                 |  |  |  | |  | |    /  \     |  _  \  |  |  /  |          
                  \  \/   | |  | |   /    \    | | | |  |  | /  /          
                 / \  \   | |__| |  /  /\  \   | |_| |  |  |/  /          
                |  |  |   |  __  | /  /__\  \  |    /   |      \           
                |  |  |   | |  | | |   __   |  |    \   |  |\   \          
                \     /   | |  | | |  |  |  |  | |\  \  |  | \   \       
                 \___/    |_|  |_| |__|  |__|  |_| \__\ |__|  \__/        
                                                                              
                      - O R C A' S   B I G   F R I E N D -                    
                                      &                                       
                       - I N T E G R A L  F E E D E R -                       
                                                                              
 v1 FN, 2020, v2 2021                                                         
------------------------------------------------------------------------------


Reading SHARK input file HCl_DFT.SHARKINP.tmp ... ok
----------------------
SHARK INTEGRAL PACKAGE
----------------------

Number of atoms                             ...      2
Number of basis functions                   ...     23
Number of shells                            ...     11
Maximum angular momentum                    ...      2
Integral batch strategy                     ... SHARK/LIBINT Hybrid
RI-J (if used) integral strategy            ... SPLIT-RIJ (Revised 2003 algorithm where possible)
Printlevel                                  ...      1
Contraction scheme used                     ... SEGMENTED contraction
Coulomb Range Separation                    ... NOT USED
Exchange Range Separation                   ... NOT USED
Finite Nucleus Model                        ... NOT USED
Auxiliary Coulomb fitting basis             ... AVAILABLE
   # of basis functions in Aux-J            ...     62
   # of shells in Aux-J                     ...     22
   Maximum angular momentum in Aux-J        ...      4
Auxiliary J/K fitting basis                 ... NOT available
Auxiliary Correlation fitting basis         ... NOT available
Auxiliary 'external' fitting basis          ... NOT available
Integral threshold                          ...     2.500000e-11
Primitive cut-off                           ...     2.500000e-12
Primitive pair pre-selection threshold      ...     2.500000e-12

Calculating pre-screening integrals         ... done (  0.1 sec) Dimension = 11
Organizing shell pair data                  ... done (  0.1 sec)
Shell pair information
Total number of shell pairs                 ...        66
Shell pairs after pre-screening             ...        66
Total number of primitive shell pairs       ...       302
Primitive shell pairs kept                  ...       293
          la=0 lb=0:     21 shell pairs
          la=1 lb=0:     24 shell pairs
          la=1 lb=1:     10 shell pairs
          la=2 lb=0:      6 shell pairs
          la=2 lb=1:      4 shell pairs
          la=2 lb=2:      1 shell pairs

Calculating one electron integrals          ... done (  0.0 sec)
Calculating RI/J V-Matrix + Cholesky decomp.... done (  0.1 sec)
Calculating Nuclear repulsion               ... done (  0.0 sec) ENN=      6.938830387128 Eh

SHARK setup successfully completed in   0.5 seconds

Maximum memory used throughout the entire GTOINT-calculation: 8.7 MB

Diagonalization of the overlap matrix:
Smallest eigenvalue                        ... 5.601e-02
Time for diagonalization                   ...    0.000 sec
Threshold for overlap eigenvalues          ... 1.000e-08
Number of eigenvalues below threshold      ... 0
Time for construction of square roots      ...    0.003 sec
Total time needed                          ...    0.003 sec

-------------------
DFT GRID GENERATION
-------------------

General Integration Accuracy     IntAcc      ... 4.388
Radial Grid Type                 RadialGrid  ... OptM3 with GC (2021)
Angular Grid (max. ang.)         AngularGrid ... 4 (Lebedev-302)
Angular grid pruning method      GridPruning ... 4 (adaptive)
Weight generation scheme         WeightScheme... Becke
Basis function cutoff            BFCut       ... 1.0000e-11
Integration weight cutoff        WCut        ... 1.0000e-14
Angular grids for H and He will be reduced by one unit
Partially contracted basis set               ... off
Rotationally invariant grid construction     ... off

Total number of grid points                  ...    10685
Total number of batches                      ...      167
Average number of points per batch           ...       63
Average number of grid points per atom       ...     5342
Time for grid setup =    0.198 sec

--------------------
COSX GRID GENERATION
--------------------

GRIDX 1
-------
General Integration Accuracy     IntAcc      ... 3.816
Radial Grid Type                 RadialGrid  ... OptM3 with GC (2021)
Angular Grid (max. ang.)         AngularGrid ... 1 (Lebedev-50)
Angular grid pruning method      GridPruning ... 4 (adaptive)
Weight generation scheme         WeightScheme... Becke
Basis function cutoff            BFCut       ... 1.0000e-11
Integration weight cutoff        WCut        ... 1.0000e-14
Angular grids for H and He will be reduced by one unit
Partially contracted basis set               ... on
Rotationally invariant grid construction     ... off

Total number of grid points                  ...     1280
Total number of batches                      ...       21
Average number of points per batch           ...       60
Average number of grid points per atom       ...      640
UseSFitting                                  ... on

GRIDX 2
-------
General Integration Accuracy     IntAcc      ... 4.020
Radial Grid Type                 RadialGrid  ... OptM3 with GC (2021)
Angular Grid (max. ang.)         AngularGrid ... 2 (Lebedev-110)
Angular grid pruning method      GridPruning ... 4 (adaptive)
Weight generation scheme         WeightScheme... Becke
Basis function cutoff            BFCut       ... 1.0000e-11
Integration weight cutoff        WCut        ... 1.0000e-14
Angular grids for H and He will be reduced by one unit
Partially contracted basis set               ... on
Rotationally invariant grid construction     ... off

Total number of grid points                  ...     2782
Total number of batches                      ...       45
Average number of points per batch           ...       61
Average number of grid points per atom       ...     1391
UseSFitting                                  ... on

GRIDX 3
-------
General Integration Accuracy     IntAcc      ... 4.338
[...]
          (0) Prelude                            ...    0.000 sec
          (1) Hermite density                    ...    0.000 sec
          (2) Aux basis density                  ...    0.000 sec (inner=  0.0)
          (3) Linear equation solution           ...    0.000 sec
          (4) J-Matrix construction              ...    0.001 sec (inner=  0.0)
        ---------------------------------------------------------
                      *** Initiating the SOSCF procedure ***
                      *** Re-Reading the Fockian *** 
                      *** Removing any level shift *** 

                         ----------------------------
                         !        ITERATION     0   !
                         ----------------------------
   Total Energy        :    -460.605719462283 Eh
   Energy Change       :    -460.605719462283 Eh
   MAX-DP              :       0.000024580495
   RMS-DP              :       0.000001854827
   Orbital gradient    :       0.000017341722
   Orbital Rotation    :       0.000017341722
   Actual Damping      :       0.0000
   Int. Num. El.       :    18.00000045 (UP=    9.00000023 DN=    9.00000023)
   Exchange            :   -22.12884214
   Correlation         :    -0.85293249

               *** Restarting incremental Fock matrix formation ***
==>> SHARK/AuxDens: NDens=1 Thresh =     2.500000e-11 TCut=    2.500000e-12 Lmax=2 LmaxAux=4
    -> Making Hermite density - ok     0.000 sec
    -> Making Aux-basis density - (lmax=2)
    -> L=0 0:    0.000 sec done=       462 (100.0%) skipped=         0 
    -> L=1 0:    0.000 sec done=       528 (100.0%) skipped=         0 
    -> L=1 1:    0.000 sec done=       220 (100.0%) skipped=         0 
    -> L=2 0:    0.000 sec done=       132 (100.0%) skipped=         0 
    -> L=2 1:    0.000 sec done=        88 (100.0%) skipped=         0 
    -> L=2 2:    0.000 sec done=        22 (100.0%) skipped=         0 
    -> Aux basis density formed in    0.0 sec
    -> Solving linear equations - ok (   0.0 sec)
        Auxbasis Hermite Density:
        P|s>                     ... -0.000
        P|p>                     ... -0.000
        P|d>                     ... -0.000
        P|f>                     ... -0.000
        P|g>                     ... -0.000
        Building the Coulomb matrix: 
        J|ss>                          ... done (  0.0 sec) ndone=     4010 nskipped1=        0 nskipped2=       15
        J|ps>                          ... done (  0.0 sec) ndone=     3780 nskipped1=        0 nskipped2=       35
        J|pp>                          ... done (  0.0 sec) ndone=     1610 nskipped1=        0 nskipped2=        0
        J|ds>                          ... done (  0.0 sec) ndone=      490 nskipped1=        0 nskipped2=        0
        J|dp>                          ... done (  0.0 sec) ndone=      280 nskipped1=        0 nskipped2=        0
        J|dd>                          ... done (  0.0 sec) ndone=       35 nskipped1=        0 nskipped2=        0
        Coulomb matrix built in   0.0 sec

        Total time for Split-RI-J                ...    0.003 sec
          (0) Prelude                            ...    0.000 sec
          (1) Hermite density                    ...    0.000 sec
          (2) Aux basis density                  ...    0.000 sec (inner=  0.0)
          (3) Linear equation solution           ...    0.000 sec
          (4) J-Matrix construction              ...    0.001 sec (inner=  0.0)
        ---------------------------------------------------------
                 **** Energy Check signals convergence ****
              ***Rediagonalizing the Fockian in SOSCF/NRSCF***

               *****************************************************
               *                     SUCCESS                       *
               *           SCF CONVERGED AFTER   1 CYCLES          *
               *****************************************************

Old exchange energy                            =     -5.578802693 Eh
New exchange energy                            =     -5.578804105 Eh
Exchange energy change after final integration =     -0.000001412 Eh
Total energy after final integration           =   -460.605720874 Eh
Final COS-X integration done in                =     0.381 sec

----------------
TOTAL SCF ENERGY
----------------

Total Energy       :         -460.60572087 Eh          -12533.71887 eV

Components:
Nuclear Repulsion  :            6.94861592 Eh             189.08145 eV
Electronic Energy  :         -467.55433679 Eh          -12722.80032 eV
One Electron Energy:         -649.86992884 Eh          -17683.85979 eV
Two Electron Energy:          182.31559205 Eh            4961.05948 eV
Max COSX asymmetry :            0.00000026 Eh               0.00001 eV
CPCM Dielectric    :           -0.00522034 Eh              -0.14205 eV

Virial components:
Potential Energy   :         -920.26118804 Eh          -25041.58002 eV
Kinetic Energy     :          459.65546716 Eh           12507.86115 eV
Virial Ratio       :            2.00206732


DFT components:
N(Alpha)           :        9.000000225920 electrons
N(Beta)            :        9.000000225920 electrons
N(Total)           :       18.000000451841 electrons
E(X)               :      -22.128836671427 Eh       
E(C)               :       -0.852932324150 Eh       
E(XC)              :      -22.981768995577 Eh       
DFET-embed. en.    :        0.000000000000 Eh       
CPCM Solvation Model Properties:
Surface-charge          :           -0.00439296
Charge-correction       :            0.00007418 Eh               0.00202 eV
Free-energy (cav+disp)  :  This term is not implemented in the current solvation scheme

---------------
SCF CONVERGENCE
---------------

  Last Energy change         ...   -4.1513e-10  Tolerance :   1.0000e-08
  Last MAX-Density change    ...    8.8818e-16  Tolerance :   1.0000e-07
  Last RMS-Density change    ...    1.0772e-16  Tolerance :   5.0000e-09
  Last Orbital Gradient      ...    1.4478e-06  Tolerance :   1.0000e-05
  Last Orbital Rotation      ...    2.5822e-06  Tolerance :   1.0000e-05

             **** THE GBW FILE WAS UPDATED (HCl_DFT.gbw) ****
             **** DENSITY HCl_DFT.scfp WAS UPDATED ****
             **** ENERGY FILE WAS UPDATED (HCl_DFT.en.tmp) ****
             **** THE GBW FILE WAS UPDATED (HCl_DFT.gbw) ****
             **** DENSITY HCl_DFT.scfp WAS UPDATED ****
----------------
ORBITAL ENERGIES
----------------

  NO   OCC          E(Eh)            E(eV) 
   0   2.0000    -101.492969     -2761.7641 
   1   2.0000      -9.446821      -257.0611 
   2   2.0000      -7.215665      -196.3482 
   3   2.0000      -7.206186      -196.0903 
   4   2.0000      -7.206186      -196.0903 
   5   2.0000      -0.822080       -22.3699 
   6   2.0000      -0.450028       -12.2459 
   7   2.0000      -0.313769        -8.5381 
   8   2.0000      -0.313769        -8.5381 
   9   0.0000       0.042172         1.1476 
  10   0.0000       0.344727         9.3805 
  11   0.0000       0.528761        14.3883 
  12   0.0000       0.705461        19.1966 
  13   0.0000       0.705461        19.1966 
  14   0.0000       0.789960        21.4959 
  15   0.0000       0.789972        21.4962 
  16   0.0000       0.857175        23.3249 
  17   0.0000       0.870672        23.6922 
  18   0.0000       0.870672        23.6922 
  19   0.0000       1.152927        31.3727 
  20   0.0000       1.577113        42.9154 
  21   0.0000       1.577113        42.9154 
  22   0.0000       2.254726        61.3542 

                    ********************************
                    * MULLIKEN POPULATION ANALYSIS *
                    ********************************

-----------------------
MULLIKEN ATOMIC CHARGES
-----------------------
   0 Cl:   -0.182126
   1 H :    0.182126
Sum of atomic charges:   -0.0000000

--------------------------------
MULLIKEN REDUCED ORBITAL CHARGES
--------------------------------
  0 Cls       :     5.928453  s :     5.928453
      pz      :     3.990187  p :    11.236638
      px      :     3.256264
      py      :     3.990187
      dz2     :     0.003900  d :     0.017035
      dxz     :     0.000717
      dyz     :     0.000000
      dx2y2   :     0.011701
      dxy     :     0.000717
  1 H s       :     0.772205  s :     0.772205
      pz      :     0.009096  p :     0.045669
      px      :     0.027476
      py      :     0.009096

------------------------
MULLIKEN OVERLAP CHARGES
------------------------
B(  0-Cl,  1-H ) :   0.6028 


                     *******************************
                     * LOEWDIN POPULATION ANALYSIS *
                     *******************************

----------------------
LOEWDIN ATOMIC CHARGES
----------------------
   0 Cl:   -0.043148
   1 H :    0.043148

-------------------------------
LOEWDIN REDUCED ORBITAL CHARGES
-------------------------------
  0 Cls       :     5.792488  s :     5.792488
      pz      :     3.975306  p :    11.228749
      px      :     3.278136
      py      :     3.975306
      dz2     :     0.005285  d :     0.021911
      dxz     :     0.000386
      dyz     :     0.000000
      dx2y2   :     0.015854
      dxy     :     0.000386
  1 H s       :     0.843025  s :     0.843025
      pz      :     0.024308  p :     0.113827
      px      :     0.065212
      py      :     0.024308

---------------------------------
LOEWDIN BOND ORDERS (THRESH 0.050000)
---------------------------------
B(  0-Cl,  1-H ) :   1.1487 

------------------------------------------
LOEWDIN REDUCED ORBITAL POPULATIONS PER MO
-------------------------------------------
THRESHOLD FOR PRINTING IS 0.1%
                      0         1         2         3         4         5   
                 -101.49297  -9.44682  -7.21567  -7.20619  -7.20619  -0.82208
                   2.00000   2.00000   2.00000   2.00000   2.00000   2.00000
                  --------  --------  --------  --------  --------  --------
 0 Cl s             100.0      99.9       0.0       0.0       0.0      79.6
 0 Cl pz              0.0       0.0       0.0     100.0       0.0       0.0
 0 Cl px              0.0       0.0     100.0       0.0       0.0       0.9
 0 Cl py              0.0       0.0       0.0       0.0     100.0       0.0
 1 H  s               0.0       0.1       0.0       0.0       0.0      16.8
 1 H  px              0.0       0.0       0.0       0.0       0.0       2.7

                      6         7         8         9        10        11   
                  -0.45003  -0.31377  -0.31377   0.04217   0.34473   0.52876
                   2.00000   2.00000   2.00000   0.00000   0.00000   0.00000
                  --------  --------  --------  --------  --------  --------
 0 Cl s              10.1       0.0       0.0       6.1       3.2      89.7
 0 Cl pz              0.0       0.0      98.8       0.0       0.0       0.0
 0 Cl px             63.1       0.0       0.0      23.0       5.7       5.7
 0 Cl py              0.0      98.8       0.0       0.0       0.0       0.0
 0 Cl dz2             0.2       0.0       0.0       1.4       6.3       0.0
 0 Cl dx2y2           0.7       0.0       0.0       4.1      18.8       0.1
 1 H  s              25.3       0.0       0.0      55.4      65.8       4.1
 1 H  pz              0.0       0.0       1.2       0.0       0.0       0.0
 1 H  px              0.6       0.0       0.0       9.9       0.3       0.4
 1 H  py              0.0       1.2       0.0       0.0       0.0       0.0

                     12        13        14        15        16        17   
                   0.70546   0.70546   0.78996   0.78997   0.85718   0.87067
                   0.00000   0.00000   0.00000   0.00000   0.00000   0.00000
                  --------  --------  --------  --------  --------  --------
 0 Cl s               0.0       0.0       0.0       0.0       1.9       0.0
 0 Cl pz              0.3       0.0       0.0       0.0       0.0      97.2
 0 Cl px              0.0       0.0       0.0       0.0      58.6       0.0
 0 Cl py              0.0       0.3       0.0       0.0       0.0       1.7
 0 Cl dz2             0.0       0.0      75.0       0.0       4.2       0.0
 0 Cl dxz            85.8       0.1       0.0       0.0       0.0       0.2
 0 Cl dyz             0.0       0.0       0.0     100.0       0.0       0.0
 0 Cl dx2y2           0.0       0.0      25.0       0.0      12.5       0.0
 0 Cl dxy             0.1      85.8       0.0       0.0       0.0       0.0
 1 H  s               0.0       0.0       0.0       0.0      13.5       0.0
 1 H  pz             13.8       0.0       0.0       0.0       0.0       0.9
 1 H  px              0.0       0.0       0.0       0.0       9.3       0.0
 1 H  py              0.0      13.8       0.0       0.0       0.0       0.0

                     18        19        20        21        22   
                   0.87067   1.15293   1.57711   1.57711   2.25473
                   0.00000   0.00000   0.00000   0.00000   0.00000
                  --------  --------  --------  --------  --------
 0 Cl s               0.0       4.5       0.0       0.0       5.0
 0 Cl pz              1.7       0.0       0.0       2.0       0.0
 0 Cl px              0.0      33.5       0.0       0.0       9.6
 0 Cl py             97.2       0.0       2.0       0.0       0.0
 0 Cl dz2             0.0       9.9       0.0       0.0       2.9
 0 Cl dxz             0.0       0.0       0.0      13.9       0.0
 0 Cl dx2y2           0.0      29.8       0.0       0.0       8.8
 0 Cl dxy             0.2       0.0      13.9       0.0       0.0
 1 H  s               0.0      12.9       0.0       0.0       6.2
 1 H  pz              0.0       0.0       0.0      84.0       0.0
 1 H  px              0.0       9.3       0.0       0.0      67.5
 1 H  py              0.9       0.0      84.0       0.0       0.0


                      *****************************
                      * MAYER POPULATION ANALYSIS *
                      *****************************

  NA   - Mulliken gross atomic population
  ZA   - Total nuclear charge
  QA   - Mulliken gross atomic charge
  VA   - Mayer's total valence
  BVA  - Mayer's bonded valence
  FA   - Mayer's free valence

  ATOM       NA         ZA         QA         VA         BVA        FA
  0 Cl    17.1821    17.0000    -0.1821     0.9691     0.9691     0.0000
  1 H      0.8179     1.0000     0.1821     0.9691     0.9691    -0.0000

  Mayer bond orders larger than 0.100000
B(  0-Cl,  1-H ) :   0.9691 

-------
TIMINGS
-------

Total SCF time: 0 days 0 hours 0 min 2 sec 

Total time                  ....       2.919 sec
Sum of individual times     ....       2.583 sec  ( 88.5%)

Fock matrix formation       ....       1.888 sec  ( 64.7%)
  Split-RI-J                ....       0.322 sec  ( 17.1% of F)
  Chain of spheres X        ....       0.763 sec  ( 40.4% of F)
  XC integration            ....       0.482 sec  ( 25.5% of F)
    Basis function eval.    ....       0.178 sec  ( 36.9% of XC)
    Density eval.           ....       0.105 sec  ( 21.7% of XC)
    XC-Functional eval.     ....       0.097 sec  ( 20.2% of XC)
    XC-Potential eval.      ....       0.007 sec  (  1.4% of XC)
Diagonalization             ....       0.000 sec  (  0.0%)
Density matrix formation    ....       0.000 sec  (  0.0%)
Population analysis         ....       0.017 sec  (  0.6%)
Initial guess               ....       0.081 sec  (  2.8%)
Orbital Transformation      ....       0.000 sec  (  0.0%)
Orbital Orthonormalization  ....       0.000 sec  (  0.0%)
DIIS solution               ....       0.000 sec  (  0.0%)
SOSCF solution              ....       0.001 sec  (  0.0%)
Grid generation             ....       0.596 sec  ( 20.4%)

Maximum memory used throughout the entire SCF-calculation: 43.5 MB

-------------------------   --------------------
FINAL SINGLE POINT ENERGY      -460.605720874298
-------------------------   --------------------

                                *** OPTIMIZATION RUN DONE ***

                            ***************************************
                            *     ORCA property calculations      *
                            ***************************************

                                    ---------------------
                                    Active property flags
                                    ---------------------
   (+) Dipole Moment


------------------------------------------------------------------------------
                       ORCA ELECTRIC PROPERTIES CALCULATION
------------------------------------------------------------------------------

Dipole Moment Calculation                       ... on
Quadrupole Moment Calculation                   ... off
Polarizability Calculation                      ... off
GBWName                                         ... HCl_DFT.gbw
Electron density                                ... HCl_DFT.scfp
SHARK General Contraction Test:  Segmented basis detected
   -> Pre-screening matrix found on disk - Trying to read with NShells=11
   -> Passing Pre-screening matrix on to SHARK ...ok
   -> Leaving CheckPreScreeningMatrix
----------------------
SHARK INTEGRAL PACKAGE
----------------------

Number of atoms                             ...      2
Number of basis functions                   ...     23
Number of shells                            ...     11
Maximum angular momentum                    ...      2
Integral batch strategy                     ... SHARK/LIBINT Hybrid
RI-J (if used) integral strategy            ... SPLIT-RIJ (Revised 2003 algorithm where possible)
Printlevel                                  ...      2
Contraction scheme used                     ... SEGMENTED contraction
Coulomb Range Separation                    ... NOT USED
Exchange Range Separation                   ... NOT USED
Finite Nucleus Model                        ... NOT USED
Auxiliary Coulomb fitting basis             ... AVAILABLE
   # of basis functions in Aux-J            ...     62
   # of shells in Aux-J                     ...     22
   Maximum angular momentum in Aux-J        ...      4
Auxiliary J/K fitting basis                 ... NOT available
Auxiliary Correlation fitting basis         ... NOT available
Auxiliary 'external' fitting basis          ... NOT available
Integral threshold                          ...     2.500000e-11
Primitive cut-off                           ...     2.500000e-12
Primitive pair pre-selection threshold      ...     2.500000e-12

The origin for moment calculation is the CENTER OF MASS  = ( 2.108930,  0.038550  0.142353)

-------------
DIPOLE MOMENT
-------------
                                X             Y             Z
Electronic contribution:     -0.58465       0.00000      -0.00000
Nuclear contribution   :      1.22907       0.00000       0.00000
                        -----------------------------------------
Total Dipole Moment    :      0.64442       0.00000      -0.00000
                        -----------------------------------------
Magnitude (a.u.)       :      0.64442
Magnitude (Debye)      :      1.63799



--------------------
Rotational spectrum 
--------------------
 
Rotational constants in cm-1:     0.000000    10.261444    10.261444 
Rotational constants in MHz :     0.000000 307630.340476 307630.340476 

 Dipole components along the rotational axes: 
x,y,z [a.u.] :     0.644421     0.000000    -0.000000 
x,y,z [Debye]:     1.637989     0.000000    -0.000000 

 

Timings for individual modules:

Sum of individual times         ...       29.575 sec (=   0.493 min)
GTO integral calculation        ...        1.925 sec (=   0.032 min)   6.5 %
SCF iterations                  ...       21.724 sec (=   0.362 min)  73.5 %
SCF Gradient evaluation         ...        5.502 sec (=   0.092 min)  18.6 %
Geometry relaxation             ...        0.424 sec (=   0.007 min)   1.4 %
                             ****ORCA TERMINATED NORMALLY****
TOTAL RUN TIME: 0 days 0 hours 0 minutes 31 seconds 602 msec
