
                                 *****************
                                 * O   R   C   A *
                                 *****************

                                            #,                                       
                                            ###                                      
                                            ####                                     
                                            #####                                    
                                            ######                                   
                                           ########,                                 
                                     ,,################,,,,,                         
                               ,,#################################,,                 
                          ,,##########################################,,             
                       ,#########################################, ''#####,          
                    ,#############################################,,   '####,        
                  ,##################################################,,,,####,       
                ,###########''''           ''''###############################       
              ,#####''   ,,,,##########,,,,          '''####'''          '####       
            ,##' ,,,,###########################,,,                        '##       
           ' ,,###''''                  '''############,,,                           
         ,,##''                                '''############,,,,        ,,,,,,###''
      ,#''                                            '''#######################'''  
     '                                                          ''''####''''         
             ,#######,   #######,   ,#######,      ##                                
            ,#'     '#,  ##    ##  ,#'     '#,    #''#        ######   ,####,        
            ##       ##  ##   ,#'  ##            #'  '#       #        #'  '#        
            ##       ##  #######   ##           ,######,      #####,   #    #        
            '#,     ,#'  ##    ##  '#,     ,#' ,#      #,         ##   #,  ,#        
             '#######'   ##     ##  '#######'  #'      '#     #####' # '####'        



                  #######################################################
                  #                        -***-                        #
                  #          Department of theory and spectroscopy      #
                  #    Directorship and core code : Frank Neese         #
                  #        Max Planck Institute fuer Kohlenforschung    #
                  #                Kaiser Wilhelm Platz 1               #
                  #                 D-45470 Muelheim/Ruhr               #
                  #                      Germany                        #
                  #                                                     #
                  #                  All rights reserved                #
                  #                        -***-                        #
                  #######################################################


                         Program Version 5.0.4 -  RELEASE  -


 With contributions from (in alphabetic order):
   Daniel Aravena         : Magnetic Suceptibility
   Michael Atanasov       : Ab Initio Ligand Field Theory (pilot matlab implementation)
   Alexander A. Auer      : GIAO ZORA, VPT2 properties, NMR spectrum
   Ute Becker             : Parallelization
   Giovanni Bistoni       : ED, misc. LED, open-shell LED, HFLD
   Martin Brehm           : Molecular dynamics
   Dmytro Bykov           : SCF Hessian
   Vijay G. Chilkuri      : MRCI spin determinant printing, contributions to CSF-ICE
   Dipayan Datta          : RHF DLPNO-CCSD density
   Achintya Kumar Dutta   : EOM-CC, STEOM-CC
   Dmitry Ganyushin       : Spin-Orbit,Spin-Spin,Magnetic field MRCI
   Miquel Garcia          : C-PCM and meta-GGA Hessian, CC/C-PCM, Gaussian charge scheme
   Yang Guo               : DLPNO-NEVPT2, F12-NEVPT2, CIM, IAO-localization
   Andreas Hansen         : Spin unrestricted coupled pair/coupled cluster methods
   Benjamin Helmich-Paris : MC-RPA, TRAH-SCF, COSX integrals
   Lee Huntington         : MR-EOM, pCC
   Robert Izsak           : Overlap fitted RIJCOSX, COSX-SCS-MP3, EOM
   Marcus Kettner         : VPT2
   Christian Kollmar      : KDIIS, OOCD, Brueckner-CCSD(T), CCSD density, CASPT2, CASPT2-K
   Simone Kossmann        : Meta GGA functionals, TD-DFT gradient, OOMP2, MP2 Hessian
   Martin Krupicka        : Initial AUTO-CI
   Lucas Lang             : DCDCAS
   Marvin Lechner         : AUTO-CI (C++ implementation), FIC-MRCC
   Dagmar Lenk            : GEPOL surface, SMD
   Dimitrios Liakos       : Extrapolation schemes; Compound Job, initial MDCI parallelization
   Dimitrios Manganas     : Further ROCIS development; embedding schemes
   Dimitrios Pantazis     : SARC Basis sets
   Anastasios Papadopoulos: AUTO-CI, single reference methods and gradients
   Taras Petrenko         : DFT Hessian,TD-DFT gradient, ASA, ECA, R-Raman, ABS, FL, XAS/XES, NRVS
   Peter Pinski           : DLPNO-MP2, DLPNO-MP2 Gradient
   Christoph Reimann      : Effective Core Potentials
   Marius Retegan         : Local ZFS, SOC
   Christoph Riplinger    : Optimizer, TS searches, QM/MM, DLPNO-CCSD(T), (RO)-DLPNO pert. Triples
   Tobias Risthaus        : Range-separated hybrids, TD-DFT gradient, RPA, STAB
   Michael Roemelt        : Original ROCIS implementation
   Masaaki Saitow         : Open-shell DLPNO-CCSD energy and density
   Barbara Sandhoefer     : DKH picture change effects
   Avijit Sen             : IP-ROCIS
   Kantharuban Sivalingam : CASSCF convergence, NEVPT2, FIC-MRCI
   Bernardo de Souza      : ESD, SOC TD-DFT
   Georgi Stoychev        : AutoAux, RI-MP2 NMR, DLPNO-MP2 response
   Willem Van den Heuvel  : Paramagnetic NMR
   Boris Wezisla          : Elementary symmetry handling
   Frank Wennmohs         : Technical directorship


 We gratefully acknowledge several colleagues who have allowed us to
 interface, adapt or use parts of their codes:
   Stefan Grimme, W. Hujo, H. Kruse, P. Pracht,  : VdW corrections, initial TS optimization,
                  C. Bannwarth, S. Ehlert          DFT functionals, gCP, sTDA/sTD-DF
   Ed Valeev, F. Pavosevic, A. Kumar             : LibInt (2-el integral package), F12 methods
   Garnet Chan, S. Sharma, J. Yang, R. Olivares  : DMRG
   Ulf Ekstrom                                   : XCFun DFT Library
   Mihaly Kallay                                 : mrcc  (arbitrary order and MRCC methods)
   Jiri Pittner, Ondrej Demel                    : Mk-CCSD
   Frank Weinhold                                : gennbo (NPA and NBO analysis)
   Christopher J. Cramer and Donald G. Truhlar   : smd solvation model
   Lars Goerigk                                  : TD-DFT with DH, B97 family of functionals
   V. Asgeirsson, H. Jonsson                     : NEB implementation
   FAccTs GmbH                                   : IRC, NEB, NEB-TS, DLPNO-Multilevel, CI-OPT
                                                   MM, QMMM, 2- and 3-layer-ONIOM, Crystal-QMMM,
                                                   LR-CPCM, SF, NACMEs, symmetry and pop. for TD-DFT,
                                                   nearIR, NL-DFT gradient (VV10), updates on ESD,
                                                   ML-optimized integration grids
   S Lehtola, MJT Oliveira, MAL Marques          : LibXC Library
   Liviu Ungur et al                             : ANISO software


 Your calculation uses the libint2 library for the computation of 2-el integrals
 For citations please refer to: http://libint.valeyev.net

 Your ORCA version has been built with support for libXC version: 5.1.0
 For citations please refer to: https://tddft.org/programs/libxc/

 This ORCA versions uses:
   CBLAS   interface :  Fast vector & matrix operations
   LAPACKE interface :  Fast linear algebra routines
   SCALAPACK package :  Parallel linear algebra routines
   Shared memory     :  Shared parallel matrices
   BLAS/LAPACK       :  OpenBLAS 0.3.15  USE64BITINT DYNAMIC_ARCH NO_AFFINITY SkylakeX SINGLE_THREADED
        Core in use  :  SkylakeX
   Copyright (c) 2011-2014, The OpenBLAS Project


================================================================================

----- Orbital basis set information -----
Your calculation utilizes the basis: def2-SVP
   F. Weigend and R. Ahlrichs, Phys. Chem. Chem. Phys. 7, 3297 (2005).

----- AuxJ basis set information -----
Your calculation utilizes the auxiliary basis: def2/J
   F. Weigend, Phys. Chem. Chem. Phys. 8, 1057 (2006).

================================================================================
                                        WARNINGS
                       Please study these warnings very carefully!
================================================================================


WARNING: Geometry Optimization
  ===> : Switching off AutoStart
         For restart on a previous wavefunction, please use MOREAD

INFO   : the flag for use of the SHARK integral package has been found!

================================================================================
                                       INPUT FILE
================================================================================
NAME = Pyridine_DFT.inp
|  1> ## avogadro generated ORCA input file 
|  2> # Advanced Mode
|  3> # 
|  4> ! B3LYP OPT def2-SVP NormalPrint defgrid2 NormalSCF 
|  5> 
|  6> ! CPCM
|  7> %cpcm
|  8> epsilon 69.0
|  9> refrac 1.34
| 10> end
| 11> 
| 12> %scf
| 13> 	MaxIter 125
| 14> 	CNVDIIS 1
| 15> 	CNVSOSCF 1 
| 16> end
| 17> 
| 18> * xyz 0 1
| 19>    C       -1.39938       -0.07701       -0.00209
| 20>    C       -0.76415        1.16039        0.00885
| 21>    C        0.62139        1.18599        0.01763
| 22>    N        1.39347        0.07748        0.01620
| 23>    C        0.74844       -1.10942        0.00549
| 24>    C       -0.63147       -1.23679       -0.00383
| 25>    H       -2.48382       -0.13699       -0.00919
| 26>    H       -1.33392        2.08257        0.01049
| 27>    H        1.16361        2.12708        0.02631
| 28>    H        1.39120       -1.98496        0.00456
| 29>    H       -1.09599       -2.21617       -0.01225
| 30> *
| 31> 
| 32> 
| 33>                          ****END OF INPUT****
================================================================================

                       *****************************
                       * Geometry Optimization Run *
                       *****************************

Geometry optimization settings:
Update method            Update   .... BFGS
Choice of coordinates    CoordSys .... Z-matrix Internals
Initial Hessian          InHess   .... Almoef's Model

Convergence Tolerances:
Energy Change            TolE     ....  5.0000e-06 Eh
Max. Gradient            TolMAXG  ....  3.0000e-04 Eh/bohr
RMS Gradient             TolRMSG  ....  1.0000e-04 Eh/bohr
Max. Displacement        TolMAXD  ....  4.0000e-03 bohr
RMS Displacement         TolRMSD  ....  2.0000e-03 bohr
Strict Convergence                ....  False
------------------------------------------------------------------------------
                        ORCA OPTIMIZATION COORDINATE SETUP
------------------------------------------------------------------------------

The optimization will be done in new redundant internal coordinates
Making redundant internal coordinates   ...  (new redundants) done
Evaluating the initial hessian          ...  (Almloef) done
Evaluating the coordinates              ...  done
Calculating the B-matrix                .... done
Calculating the G-matrix                .... done
Diagonalizing the G-matrix              .... done
The first mode is                       ....   20
The number of degrees of freedom        ....   27

    -----------------------------------------------------------------
                    Redundant Internal Coordinates


    -----------------------------------------------------------------
         Definition                    Initial Value    Approx d2E/dq
    -----------------------------------------------------------------
      1. B(C   1,C   0)                  1.3910         0.622576   
      2. B(C   2,C   1)                  1.3858         0.634501   
      3. B(N   3,C   2)                  1.3509         0.646060   
      4. B(C   4,N   3)                  1.3509         0.646055   
      5. B(C   5,C   4)                  1.3858         0.634495   
      6. B(C   5,C   0)                  1.3910         0.622590   
      7. B(H   6,C   0)                  1.0861         0.365269   
      8. B(H   7,C   1)                  1.0840         0.368125   
      9. B(H   8,C   2)                  1.0862         0.365225   
     10. B(H   9,C   4)                  1.0861         0.365236   
     11. B(H  10,C   5)                  1.0840         0.368139   
     12. A(C   1,C   0,C   5)          119.3163         0.434716   
     13. A(C   1,C   0,H   6)          120.3415         0.354010   
     14. A(C   5,C   0,H   6)          120.3421         0.354011   
     15. A(C   0,C   1,C   2)          118.2343         0.436202   
     16. A(C   2,C   1,H   7)          120.6500         0.355620   
     17. A(C   0,C   1,H   7)          121.1157         0.354478   
     18. A(N   3,C   2,H   8)          115.1935         0.354034   
     19. A(C   1,C   2,H   8)          121.0090         0.355144   
     20. A(C   1,C   2,N   3)          123.7975         0.436243   
     21. A(C   2,N   3,C   4)          116.6201         0.434795   
     22. A(C   5,C   4,H   9)          121.0087         0.355145   
     23. A(N   3,C   4,H   9)          115.1939         0.354035   
     24. A(N   3,C   4,C   5)          123.7975         0.436242   
     25. A(C   0,C   5,H  10)          121.1154         0.354481   
     26. A(C   0,C   5,C   4)          118.2343         0.436203   
     27. A(C   4,C   5,H  10)          120.6503         0.355622   
     28. D(C   2,C   1,C   0,H   6)   -179.9998         0.026834   
     29. D(H   7,C   1,C   0,C   5)   -179.9999         0.026834   
     30. D(H   7,C   1,C   0,H   6)     -0.0005         0.026834   
     31. D(C   2,C   1,C   0,C   5)      0.0008         0.026834   
     32. D(N   3,C   2,C   1,H   7)   -179.9999         0.027940   
     33. D(H   8,C   2,C   1,C   0)    179.9995         0.027940   
     34. D(N   3,C   2,C   1,C   0)     -0.0006         0.027940   
     35. D(H   8,C   2,C   1,H   7)      0.0002         0.027940   
     36. D(C   4,N   3,C   2,H   8)   -179.9998         0.030817   
     37. D(C   4,N   3,C   2,C   1)      0.0003         0.030817   
     38. D(H   9,C   4,N   3,C   2)    179.9996         0.030816   
     39. D(C   5,C   4,N   3,C   2)     -0.0002         0.030816   
     40. D(H  10,C   5,C   0,C   1)   -180.0000         0.026836   
     41. D(C   4,C   5,C   0,H   6)    179.9999         0.026836   
     42. D(C   4,C   5,C   0,C   1)     -0.0007         0.026836   
     43. D(H  10,C   5,C   4,H   9)     -0.0001         0.027939   
     44. D(H  10,C   5,C   4,N   3)    179.9997         0.027939   
     45. D(C   0,C   5,C   4,H   9)   -179.9994         0.027939   
     46. D(C   0,C   5,C   4,N   3)      0.0004         0.027939   
     47. D(H  10,C   5,C   0,H   6)      0.0006         0.026836   
    -----------------------------------------------------------------

Number of atoms                         .... 11
Number of degrees of freedom            .... 47

         *************************************************************
         *                GEOMETRY OPTIMIZATION CYCLE   1            *
         *************************************************************
---------------------------------
CARTESIAN COORDINATES (ANGSTROEM)
---------------------------------
  C     -1.399380   -0.077010   -0.002090
  C     -0.764150    1.160390    0.008850
  C      0.621390    1.185990    0.017630
  N      1.393470    0.077480    0.016200
  C      0.748440   -1.109420    0.005490
  C     -0.631470   -1.236790   -0.003830
  H     -2.483820   -0.136990   -0.009190
  H     -1.333920    2.082570    0.010490
  H      1.163610    2.127080    0.026310
  H      1.391200   -1.984960    0.004560
  H     -1.095990   -2.216170   -0.012250

----------------------------
CARTESIAN COORDINATES (A.U.)
----------------------------
  NO LB      ZA    FRAG     MASS         X           Y           Z
   0 C     6.0000    0    12.011   -2.644445   -0.145528   -0.003950
   1 C     6.0000    0    12.011   -1.444034    2.192819    0.016724
   2 C     6.0000    0    12.011    1.174257    2.241196    0.033316
   3 N     7.0000    0    14.007    2.633277    0.146416    0.030614
   4 C     6.0000    0    12.011    1.414347   -2.096500    0.010375
   5 C     6.0000    0    12.011   -1.193305   -2.337194   -0.007238
   6 H     1.0000    0     1.008   -4.693740   -0.258874   -0.017367
   7 H     1.0000    0     1.008   -2.520743    3.935487    0.019823
   8 H     1.0000    0     1.008    2.198904    4.019599    0.049719
   9 H     1.0000    0     1.008    2.628987   -3.751031    0.008617
  10 H     1.0000    0     1.008   -2.071121   -4.187954   -0.023149

--------------------------------
INTERNAL COORDINATES (ANGSTROEM)
--------------------------------
 C      0   0   0     0.000000000000     0.00000000     0.00000000
 C      1   0   0     1.390969301063     0.00000000     0.00000000
 C      2   1   0     1.385804293542   118.23426898     0.00000000
 N      3   2   1     1.350890073766   123.79754669     0.00000000
 C      4   3   2     1.350892303257   116.62009970     0.00000000
 C      5   4   3     1.385807197052   123.79745112     0.00000000
 H      1   2   3     1.086120676536   120.34153306   180.00016459
 H      2   1   3     1.084000228275   121.11570311   179.99929994
 H      3   2   1     1.086152962938   121.00899984   179.99946714
 H      5   4   3     1.086145282225   115.19385993   179.99964994
 H      6   5   4     1.083990272650   120.65031203   179.99970579

---------------------------
INTERNAL COORDINATES (A.U.)
---------------------------
 C      0   0   0     0.000000000000     0.00000000     0.00000000
 C      1   0   0     2.628551039701     0.00000000     0.00000000
 C      2   1   0     2.618790590007   118.23426898     0.00000000
 N      3   2   1     2.552812276451   123.79754669     0.00000000
 C      4   3   2     2.552816489579   116.62009970     0.00000000
 C      5   4   3     2.618796076845   123.79745112     0.00000000
 H      1   2   3     2.052470627043   120.34153306   180.00016459
 H      2   1   3     2.048463560548   121.11570311   179.99929994
 H      3   2   1     2.052531639501   121.00899984   179.99946714
 H      5   4   3     2.052517125056   115.19385993   179.99964994
 H      6   5   4     2.048444747143   120.65031203   179.99970579

---------------------
BASIS SET INFORMATION
---------------------
There are 3 groups of distinct atoms

 Group   1 Type C   : 7s4p1d contracted to 3s2p1d pattern {511/31/1}
 Group   2 Type N   : 7s4p1d contracted to 3s2p1d pattern {511/31/1}
 Group   3 Type H   : 4s1p contracted to 2s1p pattern {31/1}

Atom   0C    basis set group =>   1
Atom   1C    basis set group =>   1
Atom   2C    basis set group =>   1
Atom   3N    basis set group =>   2
Atom   4C    basis set group =>   1
Atom   5C    basis set group =>   1
Atom   6H    basis set group =>   3
Atom   7H    basis set group =>   3
Atom   8H    basis set group =>   3
Atom   9H    basis set group =>   3
Atom  10H    basis set group =>   3
---------------------------------
AUXILIARY/J BASIS SET INFORMATION
---------------------------------
There are 3 groups of distinct atoms

 Group   1 Type C   : 12s5p4d2f1g contracted to 6s4p3d1f1g pattern {711111/2111/211/2/1}
 Group   2 Type N   : 12s5p4d2f1g contracted to 6s4p3d1f1g pattern {711111/2111/211/2/1}
 Group   3 Type H   : 5s2p1d contracted to 3s1p1d pattern {311/2/1}

Atom   0C    basis set group =>   1
Atom   1C    basis set group =>   1
Atom   2C    basis set group =>   1
Atom   3N    basis set group =>   2
Atom   4C    basis set group =>   1
Atom   5C    basis set group =>   1
Atom   6H    basis set group =>   3
Atom   7H    basis set group =>   3
Atom   8H    basis set group =>   3
Atom   9H    basis set group =>   3
Atom  10H    basis set group =>   3
------------------------------------------------------------------------------
                           ORCA GTO INTEGRAL CALCULATION
                           -- RI-GTO INTEGRALS CHOSEN --
------------------------------------------------------------------------------
------------------------------------------------------------------------------
                   ___                                                        
                  /   \      - P O W E R E D   B Y -                         
                 /     \                                                     
                 |  |  |   _    _      __       _____    __    __             
                 |  |  |  | |  | |    /  \     |  _  \  |  |  /  |          
                  \  \/   | |  | |   /    \    | | | |  |  | /  /          
                 / \  \   | |__| |  /  /\  \   | |_| |  |  |/  /          
                |  |  |   |  __  | /  /__\  \  |    /   |      \           
                |  |  |   | |  | | |   __   |  |    \   |  |\   \          
                \     /   | |  | | |  |  |  |  | |\  \  |  | \   \       
                 \___/    |_|  |_| |__|  |__|  |_| \__\ |__|  \__/        
                                                                              
                      - O R C A' S   B I G   F R I E N D -                    
                                      &                                       
                       - I N T E G R A L  F E E D E R -                       
                                                                              
 v1 FN, 2020, v2 2021                                                         
------------------------------------------------------------------------------


Reading SHARK input file Pyridine_DFT.SHARKINP.tmp ... SHARK General Contraction Test:  Segmented basis detected
   -> Pre-screening matrix *NOT* found on disk - recalculating with NShells=51
   -> Leaving CheckPreScreeningMatrix
ok
----------------------
SHARK INTEGRAL PACKAGE
----------------------

Number of atoms                             ...     11
Number of basis functions                   ...    109
Number of shells                            ...     51
Maximum angular momentum                    ...      2
Integral batch strategy                     ... SHARK/LIBINT Hybrid
RI-J (if used) integral strategy            ... SPLIT-RIJ (Revised 2003 algorithm where possible)
Printlevel                                  ...      2
Contraction scheme used                     ... SEGMENTED contraction
Coulomb Range Separation                    ... NOT USED
Exchange Range Separation                   ... NOT USED
Finite Nucleus Model                        ... NOT USED
Auxiliary Coulomb fitting basis             ... AVAILABLE
   # of basis functions in Aux-J            ...    349
   # of shells in Aux-J                     ...    115
   Maximum angular momentum in Aux-J        ...      4
Auxiliary J/K fitting basis                 ... NOT available
Auxiliary Correlation fitting basis         ... NOT available
Auxiliary 'external' fitting basis          ... NOT available
Integral threshold                          ...     2.500000e-11
Primitive cut-off                           ...     2.500000e-12
Primitive pair pre-selection threshold      ...     2.500000e-12

Calculating pre-screening integrals         ... done (  0.2 sec) Dimension = 51
Organizing shell pair data                  ... done (  0.0 sec)
Shell pair information
Total number of shell pairs                 ...      1326
Shell pairs after pre-screening             ...      1308
Total number of primitive shell pairs       ...      4846
Primitive shell pairs kept                  ...      3758
          la=0 lb=0:    397 shell pairs
          la=1 lb=0:    469 shell pairs
          la=1 lb=1:    151 shell pairs
          la=2 lb=0:    168 shell pairs
          la=2 lb=1:    102 shell pairs
          la=2 lb=2:     21 shell pairs

Calculating one electron integrals          ... done (  0.1 sec)
Calculating RI/J V-Matrix + Cholesky decomp.... done (  0.1 sec)
Calculating Nuclear repulsion               ... done (  0.0 sec) ENN=    205.941903652200 Eh

SHARK setup successfully completed in   0.8 seconds

Maximum memory used throughout the entire GTOINT-calculation: 13.2 MB
-------------------------------------------------------------------------------
                                 ORCA SCF
-------------------------------------------------------------------------------

------------
SCF SETTINGS
------------
Hamiltonian:
 Density Functional     Method          .... DFT(GTOs)
 Exchange Functional    Exchange        .... B88
   X-Alpha parameter    XAlpha          ....  0.666667
   Becke's b parameter  XBeta           ....  0.004200
 Correlation Functional Correlation     .... LYP
 LDA part of GGA corr.  LDAOpt          .... VWN-5
 Gradients option       PostSCFGGA      .... off
 Hybrid DFT is turned on
   Fraction HF Exchange ScalHFX         ....  0.200000
   Scaling of DF-GGA-X  ScalDFX         ....  0.720000
   Scaling of DF-GGA-C  ScalDFC         ....  0.810000
   Scaling of DF-LDA-C  ScalLDAC        ....  1.000000
   Perturbative correction              ....  0.000000
   Density functional embedding theory  .... OFF
   NL short-range parameter             ....  4.800000
 RI-approximation to the Coulomb term is turned on
   Number of AuxJ basis functions       .... 349
   RIJ-COSX (HFX calculated with COS-X)).... on


General Settings:
 Integral files         IntName         .... Pyridine_DFT
 Hartree-Fock type      HFTyp           .... RHF
 Total Charge           Charge          ....    0
 Multiplicity           Mult            ....    1
 Number of Electrons    NEL             ....   42
 Basis Dimension        Dim             ....  109
 Nuclear Repulsion      ENuc            ....    205.9419036522 Eh

Convergence Acceleration:
 DIIS                   CNVDIIS         .... on
   Start iteration      DIISMaxIt       ....    12
   Startup error        DIISStart       ....  0.200000
   # of expansion vecs  DIISMaxEq       ....     5
   Bias factor          DIISBfac        ....   1.050
   Max. coefficient     DIISMaxC        ....  10.000
 Trust-Rad. Augm. Hess. CNVTRAH         .... auto
   Auto Start mean grad. ratio tolernc. ....  1.125000
   Auto Start start iteration           ....    20
   Auto Start num. interpolation iter.  ....    10
   Max. Number of Micro iterations      ....    16
   Max. Number of Macro iterations      .... Maxiter - #DIIS iter
   Number of Davidson start vectors     ....     2
   Converg. threshold I  (grad. norm)   ....   1.000e-05
   Converg. threshold II (energy diff.) ....   1.000e-08
   Grad. Scal. Fac. for Micro threshold ....   0.100
   Minimum threshold for Micro iter.    ....   0.010
   NR start threshold (gradient norm)   ....   0.001
   Initial trust radius                 ....   0.400
   Minimum AH scaling param. (alpha)    ....   1.000
   Maximum AH scaling param. (alpha)    .... 1000.000
   Orbital update algorithm             .... Taylor
   White noise on init. David. guess    .... on
   Maximum white noise                  ....   0.010
   Quad. conv. algorithm                .... NR
 SOSCF                  CNVSOSCF        .... on
   Start iteration      SOSCFMaxIt      ....   150
   Startup grad/error   SOSCFStart      ....  0.003300
 Level Shifting         CNVShift        .... on
   Level shift para.    LevelShift      ....    0.2500
   Turn off err/grad.   ShiftErr        ....    0.0010
 Zerner damping         CNVZerner       .... off
 Static damping         CNVDamp         .... on
   Fraction old density DampFac         ....    0.7000
   Max. Damping (<1)    DampMax         ....    0.9800
   Min. Damping (>=0)   DampMin         ....    0.0000
   Turn off err/grad.   DampErr         ....    0.1000
 Fernandez-Rico         CNVRico         .... off

SCF Procedure:
 Maximum # iterations   MaxIter         ....   125
 SCF integral mode      SCFMode         .... Direct
   Integral package                     .... SHARK and LIBINT hybrid scheme
 Reset frequency        DirectResetFreq ....    20
 Integral Threshold     Thresh          ....  2.500e-11 Eh
 Primitive CutOff       TCut            ....  2.500e-12 Eh

Convergence Tolerance:
 Convergence Check Mode ConvCheckMode   .... Total+1el-Energy
 Convergence forced     ConvForced      .... 0
 Energy Change          TolE            ....  1.000e-08 Eh
 1-El. energy change                    ....  1.000e-05 Eh
 Orbital Gradient       TolG            ....  1.000e-05
 Orbital Rotation angle TolX            ....  1.000e-05
 DIIS Error             TolErr          ....  5.000e-07


Diagonalization of the overlap matrix:
Smallest eigenvalue                        ... 7.413e-04
Time for diagonalization                   ...    0.003 sec
Threshold for overlap eigenvalues          ... 1.000e-08
Number of eigenvalues below threshold      ... 0
Time for construction of square roots      ...    0.085 sec
Total time needed                          ...    0.088 sec

SHARK General Contraction Test:  Segmented basis detected
   -> Pre-screening matrix found on disk - Trying to read with NShells=51
   -> Passing Pre-screening matrix on to SHARK ...ok
   -> Leaving CheckPreScreeningMatrix
----------------------
SHARK INTEGRAL PACKAGE
----------------------

Number of atoms                             ...     11
Number of basis functions                   ...    109
Number of shells                            ...     51
Maximum angular momentum                    ...      2
Integral batch strategy                     ... SHARK/LIBINT Hybrid
RI-J (if used) integral strategy            ... SPLIT-RIJ (Revised 2003 algorithm where possible)
Printlevel                                  ...      2
Contraction scheme used                     ... SEGMENTED contraction
Coulomb Range Separation                    ... NOT USED
Exchange Range Separation                   ... NOT USED
Finite Nucleus Model                        ... NOT USED
Auxiliary Coulomb fitting basis             ... AVAILABLE
   # of basis functions in Aux-J            ...    349
   # of shells in Aux-J                     ...    115
   Maximum angular momentum in Aux-J        ...      4
Auxiliary J/K fitting basis                 ... NOT available
Auxiliary Correlation fitting basis         ... NOT available
Auxiliary 'external' fitting basis          ... NOT available
Integral threshold                          ...     2.500000e-11
Primitive cut-off                           ...     2.500000e-12
Primitive pair pre-selection threshold      ...     2.500000e-12

Time for model grid setup =    0.607 sec

------------------------------
INITIAL GUESS: MODEL POTENTIAL
------------------------------
Loading Hartree-Fock densities                     ... done
Calculating cut-offs                               ... done
Initializing the effective Hamiltonian             ... done
Setting up the integral package (SHARK)            ... done
Starting the Coulomb interaction                   ...     -> Generating integrals - 
    -> L=0 0 :     0.013 sec done=     35883 skipped=       142 prim-skipped=         0
    -> L=1 0 :     0.098 sec done=     41781 skipped=       467 prim-skipped=         0
    -> L=1 1 :     0.088 sec done=     13629 skipped=        55 prim-skipped=         0
    -> L=2 0 :     0.008 sec done=     15271 skipped=        17 prim-skipped=         0
    -> L=2 1 :     0.006 sec done=      9265 skipped=        17 prim-skipped=         0
    -> L=2 2 :     0.002 sec done=      1911 skipped=         0 prim-skipped=         0
done (   0.3 sec)
Reading the grid                                   ... done
Mapping shells                                     ... done
Starting the XC term evaluation                    ... done (   0.8 sec)
  promolecular density results
     # of electrons  =     41.996720121
     EX              =    -33.734863323
     EC              =     -1.399404230
     EX+EC           =    -35.134267553
Transforming the Hamiltonian                       ... done (   0.0 sec)
Diagonalizing the Hamiltonian                      ... done (   0.0 sec)
Back transforming the eigenvectors                 ... done (   0.0 sec)
Now organizing SCF variables                       ... done
                      ------------------
                      INITIAL GUESS DONE (   1.7 sec)
                      ------------------
-------------------
DFT GRID GENERATION
-------------------

General Integration Accuracy     IntAcc      ... 4.388
Radial Grid Type                 RadialGrid  ... OptM3 with GC (2021)
Angular Grid (max. ang.)         AngularGrid ... 4 (Lebedev-302)
Angular grid pruning method      GridPruning ... 4 (adaptive)
Weight generation scheme         WeightScheme... Becke
Basis function cutoff            BFCut       ... 1.0000e-11
Integration weight cutoff        WCut        ... 1.0000e-14
Angular grids for H and He will be reduced by one unit
Partially contracted basis set               ... off
Rotationally invariant grid construction     ... off

Total number of grid points                  ...    52357
Total number of batches                      ...      824
Average number of points per batch           ...       63
Average number of grid points per atom       ...     4760
Time for grid setup =    3.503 sec

--------------------
COSX GRID GENERATION
--------------------

GRIDX 1
-------
General Integration Accuracy     IntAcc      ... 3.816
Radial Grid Type                 RadialGrid  ... OptM3 with GC (2021)
Angular Grid (max. ang.)         AngularGrid ... 1 (Lebedev-50)
Angular grid pruning method      GridPruning ... 4 (adaptive)
Weight generation scheme         WeightScheme... Becke
Basis function cutoff            BFCut       ... 1.0000e-11
Integration weight cutoff        WCut        ... 1.0000e-14
Angular grids for H and He will be reduced by one unit
Partially contracted basis set               ... on
Rotationally invariant grid construction     ... off

Total number of grid points                  ...     6708
Total number of batches                      ...      108
Average number of points per batch           ...       62
Average number of grid points per atom       ...      610
UseSFitting                                  ... on

GRIDX 2
-------
General Integration Accuracy     IntAcc      ... 4.020
Radial Grid Type                 RadialGrid  ... OptM3 with GC (2021)
Angular Grid (max. ang.)         AngularGrid ... 2 (Lebedev-110)
Angular grid pruning method      GridPruning ... 4 (adaptive)
Weight generation scheme         WeightScheme... Becke
Basis function cutoff            BFCut       ... 1.0000e-11
Integration weight cutoff        WCut        ... 1.0000e-14
Angular grids for H and He will be reduced by one unit
Partially contracted basis set               ... on
Rotationally invariant grid construction     ... off

Total number of grid points                  ...    14744
Total number of batches                      ...      234
Average number of points per batch           ...       63
Average number of grid points per atom       ...     1340
UseSFitting                                  ... on

GRIDX 3
-------
General Integration Accuracy     IntAcc      ... 4.338
Radial Grid Type                 RadialGrid  ... OptM3 with GC (2021)
Angular Grid (max. ang.)         AngularGrid ... 3 (Lebedev-194)
Angular grid pruning method      GridPruning ... 4 (adaptive)
Weight generation scheme         WeightScheme... Becke
Basis function cutoff            BFCut       ... 1.0000e-11
Integration weight cutoff        WCut        ... 1.0000e-14
Angular grids for H and He will be reduced by one unit
Partially contracted basis set               ... on
Rotationally invariant grid construction     ... off

Total number of grid points                  ...    32514
Total number of batches                      ...      514
Average number of points per batch           ...       63
Average number of grid points per atom       ...     2956
UseSFitting                                  ... on

Time for X-Grid setup             =    4.193 sec


--------------------
CPCM SOLVATION MODEL
--------------------
CPCM parameters:
  Epsilon                                         ...      69.0000
  Refrac                                          ...       1.3400
  Rsolv                                           ...       1.3000
  Surface type                                    ... GAUSSIAN VDW
  Epsilon function type                           ...         CPCM
Radii:
 Radius for C  used is    3.8550 Bohr (=   2.0400 Ang.)
 Radius for N  used is    3.5149 Bohr (=   1.8600 Ang.)
 Radius for H  used is    2.4944 Bohr (=   1.3200 Ang.)
Calculating surface                               ...        done! (  0.0s)
GEPOL surface points                              ...          647
GEPOL Volume                                      ...     727.7537
GEPOL Surface-area                                ...     426.9553
Calculating surface distance matrix               ...        done! (  0.0s)
Performing Cholesky decomposition & store         ...        done! (  0.1s)
Overall time for CPCM initialization              ...                 0.1s
--------------
SCF ITERATIONS
--------------
               ***  Starting incremental Fock matrix formation  ***
==>> SHARK/AuxDens: NDens=1 Thresh =     2.500000e-11 TCut=    2.500000e-12 Lmax=2 LmaxAux=4
    -> Making Hermite density - ok     0.002 sec
    -> Making Aux-basis density - (lmax=2)
    -> L=0 0:    0.093 sec done=     45056 ( 98.7%) skipped=       599 
    -> L=1 0:    0.102 sec done=     51957 ( 96.3%) skipped=      1978 
    -> L=1 1:    0.013 sec done=     16905 ( 97.4%) skipped=       460 
    -> L=2 0:    0.090 sec done=     19174 ( 99.2%) skipped=       146 
    -> L=2 1:    0.009 sec done=     11245 ( 95.9%) skipped=       485 
    -> L=2 2:    0.002 sec done=      2415 (100.0%) skipped=         0 
    -> Aux basis density formed in    0.3 sec
    -> Solving linear equations - ok (   0.0 sec)
        Auxbasis Hermite Density:
        P|s>                     ...  0.000
        P|p>                     ...  0.000
        P|d>                     ...  0.000
        P|f>                     ...  0.000
        P|g>                     ...  0.000
        Building the Coulomb matrix: 
        J|ss>                          ... done (  0.0 sec) ndone=   245095 nskipped1=     2087 nskipped2=    11506
        J|ps>                          ... done (  0.1 sec) ndone=   251235 nskipped1=     1678 nskipped2=     4718
        J|pp>                          ... done (  0.1 sec) ndone=    72114 nskipped1=      305 nskipped2=      922
        J|ds>                          ... done (  0.0 sec) ndone=    62181 nskipped1=       60 nskipped2=     2507
        J|dp>                          ... done (  0.1 sec) ndone=    31873 nskipped1=       15 nskipped2=      121
        J|dd>                          ... done (  0.0 sec) ndone=     3864 nskipped1=        0 nskipped2=        0
        Coulomb matrix built in   0.3 sec

        Total time for Split-RI-J                ...    0.705 sec
          (0) Prelude                            ...    0.000 sec
          (1) Hermite density                    ...    0.000 sec
          (2) Aux basis density                  ...    0.000 sec (inner=  0.0)
          (3) Linear equation solution           ...    0.000 sec
          (4) J-Matrix construction              ...    0.308 sec (inner=  0.3)
        ---------------------------------------------------------

                         ----------------------------
                         !        ITERATION     0   !
                         ----------------------------
   Total Energy        :    -247.841422676442 Eh
   Energy Change       :    -247.841422676442 Eh
   MAX-DP              :       0.074816567114
   RMS-DP              :       0.002496463156
   Actual Damping      :       0.7000
   Actual Level Shift  :       0.2500 Eh
   Int. Num. El.       :    42.00000278 (UP=   21.00000139 DN=   21.00000139)
   Exchange            :   -27.58181083
   Correlation         :    -1.67263580

==>> SHARK/AuxDens: NDens=1 Thresh =     2.500000e-11 TCut=    2.500000e-12 Lmax=2 LmaxAux=4
    -> Making Hermite density - ok     0.003 sec
    -> Making Aux-basis density - (lmax=2)
    -> L=0 0:    0.092 sec done=     43894 ( 96.1%) skipped=      1761 
    -> L=1 0:    0.283 sec done=     51607 ( 95.7%) skipped=      2328 
    -> L=1 1:    0.099 sec done=     16790 ( 96.7%) skipped=       575 
    -> L=2 0:    0.016 sec done=     18771 ( 97.2%) skipped=       549 
    -> L=2 1:    0.095 sec done=     11029 ( 94.0%) skipped=       701 
    -> L=2 2:    0.003 sec done=      2415 (100.0%) skipped=         0 
    -> Aux basis density formed in    0.6 sec
    -> Solving linear equations - ok (   0.0 sec)
        Auxbasis Hermite Density:
        P|s>                     ... -0.000
        P|p>                     ... -0.000
        P|d>                     ... -0.000
        P|f>                     ... -0.000
        P|g>                     ... -0.000
        Building the Coulomb matrix: 
        J|ss>                          ... done (  0.1 sec) ndone=   242859 nskipped1=     4035 nskipped2=     9853
        J|ps>                          ... done (  0.2 sec) ndone=   250838 nskipped1=     2073 nskipped2=     3987
        J|pp>                          ... done (  0.0 sec) ndone=    71868 nskipped1=      476 nskipped2=      769
        J|ds>                          ... done (  0.1 sec) ndone=    61928 nskipped1=      421 nskipped2=     2174
        J|dp>                          ... done (  0.0 sec) ndone=    31791 nskipped1=       76 nskipped2=      115
        J|dd>                          ... done (  0.0 sec) ndone=     3864 nskipped1=        0 nskipped2=        0
        Coulomb matrix built in   0.4 sec

        Total time for Split-RI-J                ...    0.989 sec
          (0) Prelude                            ...    0.000 sec
          (1) Hermite density                    ...    0.000 sec
          (2) Aux basis density                  ...    0.000 sec (inner=  0.0)
          (3) Linear equation solution           ...    0.000 sec
          (4) J-Matrix construction              ...    0.395 sec (inner=  0.4)
        ---------------------------------------------------------

                         ----------------------------
                         !        ITERATION     1   !
                         ----------------------------
   Total Energy        :    -247.891751949902 Eh
   Energy Change       :      -0.050329273459 Eh
   MAX-DP              :       0.042736625474
   RMS-DP              :       0.001799839465
   Actual Damping      :       0.7000
   Actual Level Shift  :       0.2500 Eh
   Int. Num. El.       :    42.00000312 (UP=   21.00000156 DN=   21.00000156)
   Exchange            :   -27.41590700
   Correlation         :    -1.66589924

==>> SHARK/AuxDens: NDens=1 Thresh =     2.500000e-11 TCut=    2.500000e-12 Lmax=2 LmaxAux=4
    -> Making Hermite density - ok     0.002 sec
    -> Making Aux-basis density - (lmax=2)
    -> L=0 0:    0.095 sec done=     43728 ( 95.8%) skipped=      1927 
    -> L=1 0:    0.102 sec done=     51480 ( 95.4%) skipped=      2455 
    -> L=1 1:    0.091 sec done=     16790 ( 96.7%) skipped=       575 
    -> L=2 0:    0.010 sec done=     18685 ( 96.7%) skipped=       635 
    -> L=2 1:    0.089 sec done=     10985 ( 93.6%) skipped=       745 
    -> L=2 2:    0.002 sec done=      2415 (100.0%) skipped=         0 
    -> Aux basis density formed in    0.4 sec
    -> Solving linear equations - ok (   0.0 sec)
        Auxbasis Hermite Density:
        P|s>                     ... -0.000
        P|p>                     ... -0.000
        P|d>                     ... -0.000
        P|f>                     ... -0.000
        P|g>                     ... -0.000
        Building the Coulomb matrix: 
        J|ss>                          ... done (  0.0 sec) ndone=   242292 nskipped1=     4526 nskipped2=     9757
        J|ps>                          ... done (  0.1 sec) ndone=   250712 nskipped1=     2177 nskipped2=     3994
        J|pp>                          ... done (  0.1 sec) ndone=    71836 nskipped1=      506 nskipped2=      769
        J|ds>                          ... done (  0.0 sec) ndone=    61809 nskipped1=      580 nskipped2=     2104
        J|dp>                          ... done (  0.0 sec) ndone=    31734 nskipped1=      118 nskipped2=      113
        J|dd>                          ... done (  0.1 sec) ndone=     3864 nskipped1=        0 nskipped2=        0
        Coulomb matrix built in   0.3 sec

        Total time for Split-RI-J                ...    0.689 sec
          (0) Prelude                            ...    0.000 sec
          (1) Hermite density                    ...    0.000 sec
          (2) Aux basis density                  ...    0.000 sec (inner=  0.0)
          (3) Linear equation solution           ...    0.000 sec
          (4) J-Matrix construction              ...    0.295 sec (inner=  0.3)
        ---------------------------------------------------------
                               ***Turning on DIIS***

                         ----------------------------
                         !        ITERATION     2   !
                         ----------------------------
   Total Energy        :    -247.914526268211 Eh
   Energy Change       :      -0.022774318309 Eh
   MAX-DP              :       0.061074171070
   RMS-DP              :       0.003286200237
   Actual Damping      :       0.0000
   Actual Level Shift  :       0.2500 Eh
   Int. Num. El.       :    42.00000344 (UP=   21.00000172 DN=   21.00000172)
   Exchange            :   -27.29914637
   Correlation         :    -1.66093819
   DIIS-Error          :       0.032962726992

==>> SHARK/AuxDens: NDens=1 Thresh =     2.500000e-11 TCut=    2.500000e-12 Lmax=2 LmaxAux=4
    -> Making Hermite density - ok     0.084 sec
    -> Making Aux-basis density - (lmax=2)
    -> L=0 0:    0.103 sec done=     43808 ( 96.0%) skipped=      1847 
    -> L=1 0:    0.201 sec done=     51563 ( 95.6%) skipped=      2372 
    -> L=1 1:    0.100 sec done=     16796 ( 96.7%) skipped=       569 
    -> L=2 0:    0.097 sec done=     18817 ( 97.4%) skipped=       503 
    -> L=2 1:    0.096 sec done=     11075 ( 94.4%) skipped=       655 
    -> L=2 2:    0.004 sec done=      2415 (100.0%) skipped=         0 
    -> Aux basis density formed in    0.6 sec
    -> Solving linear equations - ok (   0.0 sec)
        Auxbasis Hermite Density:
        P|s>                     ... -0.000
        P|p>                     ... -0.000
        P|d>                     ... -0.000
        P|f>                     ... -0.000
        P|g>                     ... -0.000
        Building the Coulomb matrix: 
        J|ss>                          ... done (  0.1 sec) ndone=   242885 nskipped1=     3910 nskipped2=     9892
        J|ps>                          ... done (  0.2 sec) ndone=   250834 nskipped1=     2056 nskipped2=     4018
        J|pp>                          ... done (  0.0 sec) ndone=    71881 nskipped1=      465 nskipped2=      771
        J|ds>                          ... done (  0.1 sec) ndone=    61892 nskipped1=      396 nskipped2=     2098
        J|dp>                          ... done (  0.1 sec) ndone=    31774 nskipped1=       67 nskipped2=      113
        J|dd>                          ... done (  0.0 sec) ndone=     3864 nskipped1=        0 nskipped2=        0
        Coulomb matrix built in   0.5 sec

        Total time for Split-RI-J                ...    1.187 sec
          (0) Prelude                            ...    0.000 sec
          (1) Hermite density                    ...    0.000 sec
          (2) Aux basis density                  ...    0.000 sec (inner=  0.0)
          (3) Linear equation solution           ...    0.000 sec
          (4) J-Matrix construction              ...    0.498 sec (inner=  0.5)
        ---------------------------------------------------------

                         ----------------------------
                         !        ITERATION     3   !
                         ----------------------------
   Total Energy        :    -247.948337186656 Eh
   Energy Change       :      -0.033810918445 Eh
   MAX-DP              :       0.032533541345
   RMS-DP              :       0.001157555977
   Actual Damping      :       0.0000
   Actual Level Shift  :       0.2500 Eh
   Int. Num. El.       :    42.00000407 (UP=   21.00000203 DN=   21.00000203)
   Exchange            :   -27.10651501
   Correlation         :    -1.65242631
   DIIS-Error          :       0.040720235092
   DIIS coefficients:
      0.51213   0.48787

==>> SHARK/AuxDens: NDens=1 Thresh =     2.500000e-11 TCut=    2.500000e-12 Lmax=2 LmaxAux=4
    -> Making Hermite density - ok     0.003 sec
    -> Making Aux-basis density - (lmax=2)
    -> L=0 0:    0.093 sec done=     43812 ( 96.0%) skipped=      1843 
    -> L=1 0:    0.022 sec done=     51489 ( 95.5%) skipped=      2446 
    -> L=1 1:    0.082 sec done=     16790 ( 96.7%) skipped=       575 
    -> L=2 0:    0.010 sec done=     18651 ( 96.5%) skipped=       669 
    -> L=2 1:    0.008 sec done=     10931 ( 93.2%) skipped=       799 
    -> L=2 2:    0.002 sec done=      2415 (100.0%) skipped=         0 
    -> Aux basis density formed in    0.2 sec
    -> Solving linear equations - ok (   0.0 sec)
        Auxbasis Hermite Density:
        P|s>                     ... -0.000
        P|p>                     ... -0.000
        P|d>                     ... -0.000
        P|f>                     ... -0.000
        P|g>                     ... -0.000
        Building the Coulomb matrix: 
        J|ss>                          ... done (  0.0 sec) ndone=   241901 nskipped1=     4987 nskipped2=     9855
        J|ps>                          ... done (  0.1 sec) ndone=   250621 nskipped1=     2291 nskipped2=     3986
        J|pp>                          ... done (  0.0 sec) ndone=    71820 nskipped1=      521 nskipped2=      769
        J|ds>                          ... done (  0.0 sec) ndone=    61789 nskipped1=      627 nskipped2=     2082
        J|dp>                          ... done (  0.0 sec) ndone=    31733 nskipped1=      126 nskipped2=      115
        J|dd>                          ... done (  0.0 sec) ndone=     3864 nskipped1=        0 nskipped2=        0
        Coulomb matrix built in   0.1 sec

        Total time for Split-RI-J                ...    0.414 sec
          (0) Prelude                            ...    0.000 sec
          (1) Hermite density                    ...    0.000 sec
          (2) Aux basis density                  ...    0.000 sec (inner=  0.0)
          (3) Linear equation solution           ...    0.000 sec
          (4) J-Matrix construction              ...    0.122 sec (inner=  0.1)
        ---------------------------------------------------------

                         ----------------------------
                         !        ITERATION     4   !
                         ----------------------------
   Total Energy        :    -247.955828174201 Eh
   Energy Change       :      -0.007490987545 Eh
   MAX-DP              :       0.006090321574
   RMS-DP              :       0.000335369113
   Actual Damping      :       0.0000
   Actual Level Shift  :       0.2500 Eh
   Int. Num. El.       :    42.00000387 (UP=   21.00000194 DN=   21.00000194)
   Exchange            :   -27.18061214
   Correlation         :    -1.65582855
   DIIS-Error          :       0.006361303375
   DIIS coefficients:
      0.18456   0.03883   0.77661

==>> SHARK/AuxDens: NDens=1 Thresh =     2.500000e-11 TCut=    2.500000e-12 Lmax=2 LmaxAux=4
    -> Making Hermite density - ok     0.004 sec
    -> Making Aux-basis density - (lmax=2)
    -> L=0 0:    0.096 sec done=     43099 ( 94.4%) skipped=      2556 
    -> L=1 0:    0.102 sec done=     51110 ( 94.8%) skipped=      2825 
    -> L=1 1:    0.092 sec done=     16722 ( 96.3%) skipped=       643 
    -> L=2 0:    0.009 sec done=     18364 ( 95.1%) skipped=       956 
    -> L=2 1:    0.089 sec done=     10601 ( 90.4%) skipped=      1129 
    -> L=2 2:    0.002 sec done=      2415 (100.0%) skipped=         0 
    -> Aux basis density formed in    0.4 sec
    -> Solving linear equations - ok (   0.0 sec)
        Auxbasis Hermite Density:
        P|s>                     ... -0.000
        P|p>                     ... -0.000
        P|d>                     ... -0.000
        P|f>                     ... -0.000
        P|g>                     ... -0.000
        Building the Coulomb matrix: 
        J|ss>                          ... done (  0.0 sec) ndone=   238836 nskipped1=     6936 nskipped2=     9411
        J|ps>                          ... done (  0.1 sec) ndone=   249812 nskipped1=     2796 nskipped2=     3855
        J|pp>                          ... done (  0.1 sec) ndone=    71763 nskipped1=      550 nskipped2=      765
        J|ds>                          ... done (  0.0 sec) ndone=    61426 nskipped1=      988 nskipped2=     1864
        J|dp>                          ... done (  0.0 sec) ndone=    31563 nskipped1=      230 nskipped2=      104
        J|dd>                          ... done (  0.1 sec) ndone=     3864 nskipped1=        0 nskipped2=        0
        Coulomb matrix built in   0.3 sec

        Total time for Split-RI-J                ...    0.690 sec
          (0) Prelude                            ...    0.000 sec
          (1) Hermite density                    ...    0.000 sec
          (2) Aux basis density                  ...    0.000 sec (inner=  0.0)
          (3) Linear equation solution           ...    0.000 sec
          (4) J-Matrix construction              ...    0.294 sec (inner=  0.3)
        ---------------------------------------------------------

                         ----------------------------
                         !        ITERATION     5   !
                         ----------------------------
   Total Energy        :    -247.956147198925 Eh
   Energy Change       :      -0.000319024723 Eh
   MAX-DP              :       0.003084705147
   RMS-DP              :       0.000122483626
   Actual Damping      :       0.0000
   Actual Level Shift  :       0.2500 Eh
   Int. Num. El.       :    42.00000383 (UP=   21.00000191 DN=   21.00000191)
   Exchange            :   -27.19298442
   Correlation         :    -1.65648952
   DIIS-Error          :       0.004210425240
   DIIS coefficients:
      0.05155  -0.02115   0.21912   0.75049

==>> SHARK/AuxDens: NDens=1 Thresh =     2.500000e-11 TCut=    2.500000e-12 Lmax=2 LmaxAux=4
    -> Making Hermite density - ok     0.004 sec
    -> Making Aux-basis density - (lmax=2)
    -> L=0 0:    0.099 sec done=     42704 ( 93.5%) skipped=      2951 
    -> L=1 0:    0.103 sec done=     50753 ( 94.1%) skipped=      3182 
    -> L=1 1:    0.093 sec done=     16303 ( 93.9%) skipped=      1062 
    -> L=2 0:    0.009 sec done=     18318 ( 94.8%) skipped=      1002 
    -> L=2 1:    0.008 sec done=     10293 ( 87.7%) skipped=      1437 
    -> L=2 2:    0.082 sec done=      2415 (100.0%) skipped=         0 
    -> Aux basis density formed in    0.4 sec
    -> Solving linear equations - ok (   0.0 sec)
        Auxbasis Hermite Density:
        P|s>                     ... -0.000
        P|p>                     ... -0.000
        P|d>                     ... -0.000
        P|f>                     ... -0.000
        P|g>                     ... -0.000
        Building the Coulomb matrix: 
        J|ss>                          ... done (  0.0 sec) ndone=   234566 nskipped1=    10640 nskipped2=     7933
        J|ps>                          ... done (  0.1 sec) ndone=   248452 nskipped1=     3696 nskipped2=     3680
        J|pp>                          ... done (  0.0 sec) ndone=    71472 nskipped1=      772 nskipped2=      751
        J|ds>                          ... done (  0.0 sec) ndone=    59765 nskipped1=     2325 nskipped2=     1433
        J|dp>                          ... done (  0.1 sec) ndone=    31074 nskipped1=      524 nskipped2=       92
        J|dd>                          ... done (  0.0 sec) ndone=     3864 nskipped1=        0 nskipped2=        0
        Coulomb matrix built in   0.2 sec

        Total time for Split-RI-J                ...    0.603 sec
          (0) Prelude                            ...    0.000 sec
          (1) Hermite density                    ...    0.000 sec
          (2) Aux basis density                  ...    0.000 sec (inner=  0.0)
          (3) Linear equation solution           ...    0.000 sec
          (4) J-Matrix construction              ...    0.203 sec (inner=  0.2)
        ---------------------------------------------------------
                      *** Initiating the SOSCF procedure ***
                           *** Shutting down DIIS ***
                      *** Re-Reading the Fockian *** 
                      *** Removing any level shift *** 

                         ----------------------------
                         !        ITERATION     6   !
                         ----------------------------
   Total Energy        :    -247.956183784354 Eh
   Energy Change       :      -0.000036585430 Eh
   MAX-DP              :       0.001080331170
   RMS-DP              :       0.000061635572
   Orbital gradient    :       0.000242321660
   Orbital Rotation    :       0.000242321660
   Actual Damping      :       0.0000
   Int. Num. El.       :    42.00000376 (UP=   21.00000188 DN=   21.00000188)
   Exchange            :   -27.19699491
   Correlation         :    -1.65663591

               *** Restarting incremental Fock matrix formation ***
==>> SHARK/AuxDens: NDens=1 Thresh =     2.500000e-11 TCut=    2.500000e-12 Lmax=2 LmaxAux=4
    -> Making Hermite density - ok     0.004 sec
    -> Making Aux-basis density - (lmax=2)
    -> L=0 0:    0.093 sec done=     45056 ( 98.7%) skipped=       599 
    -> L=1 0:    0.102 sec done=     51893 ( 96.2%) skipped=      2042 
    -> L=1 1:    0.092 sec done=     16905 ( 97.4%) skipped=       460 
    -> L=2 0:    0.010 sec done=     19174 ( 99.2%) skipped=       146 
    -> L=2 1:    0.090 sec done=     11227 ( 95.7%) skipped=       503 
    -> L=2 2:    0.002 sec done=      2415 (100.0%) skipped=         0 
    -> Aux basis density formed in    0.4 sec
    -> Solving linear equations - ok (   0.0 sec)
        Auxbasis Hermite Density:
        P|s>                     ... -0.000
        P|p>                     ... -0.000
        P|d>                     ... -0.000
        P|f>                     ... -0.000
        P|g>                     ... -0.000
        Building the Coulomb matrix: 
        J|ss>                          ... done (  0.1 sec) ndone=   245212 nskipped1=     2086 nskipped2=    11462
        J|ps>                          ... done (  0.1 sec) ndone=   251295 nskipped1=     1638 nskipped2=     4723
        J|pp>                          ... done (  0.0 sec) ndone=    72122 nskipped1=      300 nskipped2=      922
        J|ds>                          ... done (  0.0 sec) ndone=    62188 nskipped1=       65 nskipped2=     2505
        J|dp>                          ... done (  0.1 sec) ndone=    31884 nskipped1=        9 nskipped2=      121
        J|dd>                          ... done (  0.0 sec) ndone=     3864 nskipped1=        0 nskipped2=        0
        Coulomb matrix built in   0.3 sec

        Total time for Split-RI-J                ...    0.690 sec
          (0) Prelude                            ...    0.000 sec
          (1) Hermite density                    ...    0.000 sec
          (2) Aux basis density                  ...    0.000 sec (inner=  0.0)
          (3) Linear equation solution           ...    0.000 sec
          (4) J-Matrix construction              ...    0.295 sec (inner=  0.2)
        ---------------------------------------------------------

                         ----------------------------
                         !        ITERATION     7   !
                         ----------------------------
   Total Energy        :    -247.956179165848 Eh
   Energy Change       :       0.000004618506 Eh
   MAX-DP              :       0.000615107387
   RMS-DP              :       0.000026109757
   Orbital gradient    :       0.000151811616
   Orbital Rotation    :       0.000598216931
   Actual Damping      :       0.0000
   Int. Num. El.       :    42.00000374 (UP=   21.00000187 DN=   21.00000187)
   Exchange            :   -27.19791376
   Correlation         :    -1.65668604

==>> SHARK/AuxDens: NDens=1 Thresh =     2.500000e-11 TCut=    2.500000e-12 Lmax=2 LmaxAux=4
    -> Making Hermite density - ok     0.005 sec
    -> Making Aux-basis density - (lmax=2)
    -> L=0 0:    0.102 sec done=     42033 ( 92.1%) skipped=      3622 
    -> L=1 0:    0.116 sec done=     49701 ( 92.1%) skipped=      4234 
    -> L=1 1:    0.087 sec done=     16048 ( 92.4%) skipped=      1317 
    -> L=2 0:    0.092 sec done=     16978 ( 87.9%) skipped=      2342 
    -> L=2 1:    0.012 sec done=     10014 ( 85.4%) skipped=      1716 
    -> L=2 2:    0.083 sec done=      2415 (100.0%) skipped=         0 
    -> Aux basis density formed in    0.5 sec
    -> Solving linear equations - ok (   0.0 sec)
        Auxbasis Hermite Density:
        P|s>                     ... -0.000
        P|p>                     ... -0.000
        P|d>                     ... -0.000
        P|f>                     ... -0.000
        P|g>                     ... -0.000
        Building the Coulomb matrix: 
        J|ss>                          ... done (  0.1 sec) ndone=   230982 nskipped1=    13729 nskipped2=     6220
        J|ps>                          ... done (  0.1 sec) ndone=   246900 nskipped1=     4779 nskipped2=     3610
        J|pp>                          ... done (  0.1 sec) ndone=    70981 nskipped1=     1071 nskipped2=      731
        J|ds>                          ... done (  0.0 sec) ndone=    57276 nskipped1=     4059 nskipped2=      877
        J|dp>                          ... done (  0.1 sec) ndone=    30740 nskipped1=      721 nskipped2=       84
        J|dd>                          ... done (  0.0 sec) ndone=     3864 nskipped1=        0 nskipped2=        0
        Coulomb matrix built in   0.4 sec

        Total time for Split-RI-J                ...    0.901 sec
          (0) Prelude                            ...    0.000 sec
          (1) Hermite density                    ...    0.000 sec
          (2) Aux basis density                  ...    0.000 sec (inner=  0.0)
          (3) Linear equation solution           ...    0.000 sec
          (4) J-Matrix construction              ...    0.401 sec (inner=  0.4)
        ---------------------------------------------------------

                         ----------------------------
                         !        ITERATION     8   !
                         ----------------------------
   Total Energy        :    -247.956178879925 Eh
   Energy Change       :       0.000000285924 Eh
   MAX-DP              :       0.000278497259
   RMS-DP              :       0.000010484595
   Orbital gradient    :       0.000266816980
   Orbital Rotation    :       0.000416206366
   Actual Damping      :       0.0000
   Int. Num. El.       :    42.00000373 (UP=   21.00000187 DN=   21.00000187)
   Exchange            :   -27.19781723
   Correlation         :    -1.65668324

==>> SHARK/AuxDens: NDens=1 Thresh =     2.500000e-11 TCut=    2.500000e-12 Lmax=2 LmaxAux=4
    -> Making Hermite density - ok     0.002 sec
    -> Making Aux-basis density - (lmax=2)
    -> L=0 0:    0.094 sec done=     42031 ( 92.1%) skipped=      3624 
    -> L=1 0:    0.102 sec done=     49066 ( 91.0%) skipped=      4869 
    -> L=1 1:    0.091 sec done=     15930 ( 91.7%) skipped=      1435 
    -> L=2 0:    0.008 sec done=     16810 ( 87.0%) skipped=      2510 
    -> L=2 1:    0.089 sec done=     10005 ( 85.3%) skipped=      1725 
    -> L=2 2:    0.002 sec done=      2403 ( 99.5%) skipped=        12 
    -> Aux basis density formed in    0.4 sec
    -> Solving linear equations - ok (   0.0 sec)
        Auxbasis Hermite Density:
        P|s>                     ... -0.000
        P|p>                     ... -0.000
        P|d>                     ... -0.000
        P|f>                     ... -0.000
        P|g>                     ... -0.000
        Building the Coulomb matrix: 
        J|ss>                          ... done (  0.0 sec) ndone=   229512 nskipped1=    15186 nskipped2=     5526
        J|ps>                          ... done (  0.1 sec) ndone=   245271 nskipped1=     5984 nskipped2=     3499
        J|pp>                          ... done (  0.0 sec) ndone=    70744 nskipped1=     1280 nskipped2=      729
        J|ds>                          ... done (  0.0 sec) ndone=    56027 nskipped1=     4903 nskipped2=      677
        J|dp>                          ... done (  0.1 sec) ndone=    30549 nskipped1=      869 nskipped2=       84
        J|dd>                          ... done (  0.0 sec) ndone=     3864 nskipped1=        0 nskipped2=        0
        Coulomb matrix built in   0.2 sec

        Total time for Split-RI-J                ...    0.594 sec
          (0) Prelude                            ...    0.000 sec
          (1) Hermite density                    ...    0.000 sec
          (2) Aux basis density                  ...    0.000 sec (inner=  0.0)
          (3) Linear equation solution           ...    0.000 sec
          (4) J-Matrix construction              ...    0.203 sec (inner=  0.2)
        ---------------------------------------------------------

                         ----------------------------
                         !        ITERATION     9   !
                         ----------------------------
   Total Energy        :    -247.956179467907 Eh
   Energy Change       :      -0.000000587982 Eh
   MAX-DP              :       0.000063156805
   RMS-DP              :       0.000001712737
   Orbital gradient    :       0.000018342828
   Orbital Rotation    :       0.000069224583
   Actual Damping      :       0.0000
   Int. Num. El.       :    42.00000373 (UP=   21.00000187 DN=   21.00000187)
   Exchange            :   -27.19785069
   Correlation         :    -1.65668476

==>> SHARK/AuxDens: NDens=1 Thresh =     2.500000e-11 TCut=    2.500000e-12 Lmax=2 LmaxAux=4
    -> Making Hermite density - ok     0.087 sec
    -> Making Aux-basis density - (lmax=2)
    -> L=0 0:    0.102 sec done=     40934 ( 89.7%) skipped=      4721 
    -> L=1 0:    0.113 sec done=     46606 ( 86.4%) skipped=      7329 
    -> L=1 1:    0.014 sec done=     15250 ( 87.8%) skipped=      2115 
    -> L=2 0:    0.082 sec done=     15840 ( 82.0%) skipped=      3480 
    -> L=2 1:    0.093 sec done=     10005 ( 85.3%) skipped=      1725 
    -> L=2 2:    0.003 sec done=      2317 ( 95.9%) skipped=        98 
    -> Aux basis density formed in    0.4 sec
    -> Solving linear equations - ok (   0.0 sec)
        Auxbasis Hermite Density:
        P|s>                     ... -0.000
        P|p>                     ... -0.000
        P|d>                     ... -0.000
        P|f>                     ... -0.000
        P|g>                     ... -0.000
        Building the Coulomb matrix: 
        J|ss>                          ... done (  0.1 sec) ndone=   224282 nskipped1=    19775 nskipped2=     3744
        J|ps>                          ... done (  0.1 sec) ndone=   237135 nskipped1=    11320 nskipped2=     3351
        J|pp>                          ... done (  0.1 sec) ndone=    69733 nskipped1=     1975 nskipped2=      655
        J|ds>                          ... done (  0.0 sec) ndone=    51670 nskipped1=     8108 nskipped2=      435
        J|dp>                          ... done (  0.1 sec) ndone=    29741 nskipped1=     1372 nskipped2=       84
        J|dd>                          ... done (  0.0 sec) ndone=     3864 nskipped1=        0 nskipped2=        0
        Coulomb matrix built in   0.4 sec

        Total time for Split-RI-J                ...    0.892 sec
          (0) Prelude                            ...    0.000 sec
          (1) Hermite density                    ...    0.000 sec
          (2) Aux basis density                  ...    0.000 sec (inner=  0.0)
          (3) Linear equation solution           ...    0.000 sec
          (4) J-Matrix construction              ...    0.395 sec (inner=  0.4)
        ---------------------------------------------------------

                         ----------------------------
                         !        ITERATION    10   !
                         ----------------------------
   Total Energy        :    -247.956179465440 Eh
   Energy Change       :       0.000000002467 Eh
   MAX-DP              :       0.000039984139
   RMS-DP              :       0.000001054980
   Orbital gradient    :       0.000027881397
   Orbital Rotation    :       0.000038212859
   Actual Damping      :       0.0000
   Int. Num. El.       :    42.00000373 (UP=   21.00000187 DN=   21.00000187)
   Exchange            :   -27.19787822
   Correlation         :    -1.65668536

==>> SHARK/AuxDens: NDens=1 Thresh =     2.500000e-11 TCut=    2.500000e-12 Lmax=2 LmaxAux=4
    -> Making Hermite density - ok     0.004 sec
    -> Making Aux-basis density - (lmax=2)
    -> L=0 0:    0.098 sec done=     40710 ( 89.2%) skipped=      4945 
    -> L=1 0:    0.101 sec done=     46104 ( 85.5%) skipped=      7831 
    -> L=1 1:    0.010 sec done=     14896 ( 85.8%) skipped=      2469 
    -> L=2 0:    0.088 sec done=     15688 ( 81.2%) skipped=      3632 
    -> L=2 1:    0.008 sec done=     10005 ( 85.3%) skipped=      1725 
    -> L=2 2:    0.002 sec done=      2306 ( 95.5%) skipped=       109 
    -> Aux basis density formed in    0.3 sec
    -> Solving linear equations - ok (   0.0 sec)
        Auxbasis Hermite Density:
        P|s>                     ... -0.000
        P|p>                     ... -0.000
        P|d>                     ... -0.000
        P|f>                     ... -0.000
        P|g>                     ... -0.000
        Building the Coulomb matrix: 
        J|ss>                          ... done (  0.1 sec) ndone=   220097 nskipped1=    22351 nskipped2=     3494
        J|ps>                          ... done (  0.0 sec) ndone=   232199 nskipped1=    14430 nskipped2=     3194
        J|pp>                          ... done (  0.0 sec) ndone=    69209 nskipped1=     2299 nskipped2=      615
        J|ds>                          ... done (  0.0 sec) ndone=    49502 nskipped1=     9393 nskipped2=      364
        J|dp>                          ... done (  0.0 sec) ndone=    29479 nskipped1=     1488 nskipped2=       82
        J|dd>                          ... done (  0.0 sec) ndone=     3844 nskipped1=        8 nskipped2=        0
        Coulomb matrix built in   0.2 sec

        Total time for Split-RI-J                ...    0.511 sec
          (0) Prelude                            ...    0.000 sec
          (1) Hermite density                    ...    0.000 sec
          (2) Aux basis density                  ...    0.000 sec (inner=  0.0)
          (3) Linear equation solution           ...    0.000 sec
          (4) J-Matrix construction              ...    0.198 sec (inner=  0.2)
        ---------------------------------------------------------
                  ***Gradient check signals convergence***
              ***Rediagonalizing the Fockian in SOSCF/NRSCF***

               *****************************************************
               *                     SUCCESS                       *
               *           SCF CONVERGED AFTER  11 CYCLES          *
               *****************************************************

Old exchange energy                            =     -6.847276334 Eh
New exchange energy                            =     -6.847297488 Eh
Exchange energy change after final integration =     -0.000021155 Eh
Total energy after final integration           =   -247.956200625 Eh
Final COS-X integration done in                =    19.104 sec

----------------
TOTAL SCF ENERGY
----------------

Total Energy       :         -247.95620063 Eh           -6747.23124 eV

Components:
Nuclear Repulsion  :          205.94190365 Eh            5603.96410 eV
Electronic Energy  :         -453.89810428 Eh          -12351.19534 eV
One Electron Energy:         -741.29101852 Eh          -20171.55412 eV
Two Electron Energy:          287.39291424 Eh            7820.35878 eV
Max COSX asymmetry :            0.00000228 Eh               0.00006 eV
CPCM Dielectric    :           -0.00785254 Eh              -0.21368 eV

Virial components:
Potential Energy   :         -493.41227980 Eh          -13426.43072 eV
Kinetic Energy     :          245.45607917 Eh            6679.19948 eV
Virial Ratio       :            2.01018562


DFT components:
N(Alpha)           :       21.000001866691 electrons
N(Beta)            :       21.000001866691 electrons
N(Total)           :       42.000003733382 electrons
E(X)               :      -27.197860233955 Eh       
E(C)               :       -1.656684968044 Eh       
E(XC)              :      -28.854545201998 Eh       
DFET-embed. en.    :        0.000000000000 Eh       
CPCM Solvation Model Properties:
Surface-charge          :           -0.01642940
Charge-correction       :           -0.00013449 Eh              -0.00366 eV
Free-energy (cav+disp)  :  This term is not implemented in the current solvation scheme

---------------
SCF CONVERGENCE
---------------

  Last Energy change         ...   -5.2981e-09  Tolerance :   1.0000e-08
  Last MAX-Density change    ...    2.6645e-15  Tolerance :   1.0000e-07
  Last RMS-Density change    ...    6.0498e-17  Tolerance :   5.0000e-09
  Last Orbital Gradient      ...    1.2392e-06  Tolerance :   1.0000e-05
  Last Orbital Rotation      ...    3.2245e-06  Tolerance :   1.0000e-05

             **** THE GBW FILE WAS UPDATED (Pyridine_DFT.gbw) ****
             **** DENSITY Pyridine_DFT.scfp WAS UPDATED ****
             **** ENERGY FILE WAS UPDATED (Pyridine_DFT.en.tmp) ****
             **** THE GBW FILE WAS UPDATED (Pyridine_DFT.gbw) ****
             **** DENSITY Pyridine_DFT.scfp WAS UPDATED ****
----------------
ORBITAL ENERGIES
----------------

  NO   OCC          E(Eh)            E(eV) 
   0   2.0000     -14.324307      -389.7842 
   1   2.0000     -10.219536      -278.0877 
   2   2.0000     -10.219523      -278.0874 
   3   2.0000     -10.202933      -277.6359 
   4   2.0000     -10.193460      -277.3781 
   5   2.0000     -10.193447      -277.3778 
   6   2.0000      -0.930053       -25.3080 
   7   2.0000      -0.794852       -21.6290 
   8   2.0000      -0.753894       -20.5145 
   9   2.0000      -0.621996       -16.9254 
  10   2.0000      -0.620721       -16.8907 
  11   2.0000      -0.524881       -14.2827 
  12   2.0000      -0.480528       -13.0758 
  13   2.0000      -0.461458       -12.5569 
  14   2.0000      -0.428605       -11.6629 
  15   2.0000      -0.400227       -10.8907 
  16   2.0000      -0.399082       -10.8596 
  17   2.0000      -0.360928        -9.8214 
  18   2.0000      -0.290071        -7.8932 
  19   2.0000      -0.268232        -7.2990 
  20   2.0000      -0.262232        -7.1357 
  21   0.0000      -0.030540        -0.8310 
  22   0.0000      -0.014454        -0.3933 
  23   0.0000       0.075570         2.0564 
  24   0.0000       0.108267         2.9461 
  25   0.0000       0.124510         3.3881 
  26   0.0000       0.138702         3.7743 
  27   0.0000       0.147021         4.0006 
  28   0.0000       0.158636         4.3167 
  29   0.0000       0.217174         5.9096 
  30   0.0000       0.288600         7.8532 
  31   0.0000       0.303959         8.2711 
  32   0.0000       0.304344         8.2816 
  33   0.0000       0.344976         9.3873 
  34   0.0000       0.397180        10.8078 
  35   0.0000       0.398520        10.8443 
  36   0.0000       0.414178        11.2703 
  37   0.0000       0.459288        12.4979 
  38   0.0000       0.474010        12.8985 
  39   0.0000       0.477014        12.9802 
  40   0.0000       0.486785        13.2461 
  41   0.0000       0.525858        14.3093 
  42   0.0000       0.535544        14.5729 
  43   0.0000       0.583562        15.8795 
  44   0.0000       0.590266        16.0620 
  45   0.0000       0.595161        16.1952 
  46   0.0000       0.627192        17.0668 
  47   0.0000       0.640811        17.4374 
  48   0.0000       0.647913        17.6306 
  49   0.0000       0.672310        18.2945 
  50   0.0000       0.708612        19.2823 
  51   0.0000       0.732978        19.9453 
  52   0.0000       0.738943        20.1076 
  53   0.0000       0.744993        20.2723 
  54   0.0000       0.772640        21.0246 
  55   0.0000       0.812147        22.0996 
  56   0.0000       0.868699        23.6385 
  57   0.0000       0.882548        24.0154 
  58   0.0000       0.994493        27.0615 
  59   0.0000       1.010342        27.4928 
  60   0.0000       1.144849        31.1529 
  61   0.0000       1.163691        31.6657 
  62   0.0000       1.190909        32.4063 
  63   0.0000       1.241067        33.7711 
  64   0.0000       1.262652        34.3585 
  65   0.0000       1.274102        34.6701 
  66   0.0000       1.324123        36.0312 
  67   0.0000       1.336679        36.3729 
  68   0.0000       1.359777        37.0014 
  69   0.0000       1.507321        41.0163 
  70   0.0000       1.646636        44.8072 
  71   0.0000       1.661682        45.2167 
  72   0.0000       1.709427        46.5159 
  73   0.0000       1.735150        47.2158 
  74   0.0000       1.746534        47.5256 
  75   0.0000       1.768368        48.1197 
  76   0.0000       1.781062        48.4652 
  77   0.0000       1.798712        48.9454 
  78   0.0000       1.799854        48.9765 
  79   0.0000       1.840424        50.0805 
  80   0.0000       1.920594        52.2620 
  81   0.0000       1.930577        52.5337 
  82   0.0000       1.971947        53.6594 
  83   0.0000       1.989187        54.1285 
  84   0.0000       1.989976        54.1500 
  85   0.0000       2.029455        55.2243 
  86   0.0000       2.113323        57.5064 
  87   0.0000       2.134252        58.0759 
  88   0.0000       2.190901        59.6175 
  89   0.0000       2.241329        60.9897 
  90   0.0000       2.299066        62.5608 
  91   0.0000       2.358462        64.1770 
  92   0.0000       2.408020        65.5256 
  93   0.0000       2.446913        66.5839 
  94   0.0000       2.455675        66.8223 
  95   0.0000       2.500240        68.0350 
  96   0.0000       2.594343        70.5957 
  97   0.0000       2.618805        71.2613 
  98   0.0000       2.714519        73.8658 
  99   0.0000       2.726048        74.1795 
 100   0.0000       2.726061        74.1799 
 101   0.0000       2.805066        76.3297 
 102   0.0000       2.893761        78.7433 
 103   0.0000       2.944552        80.1253 
 104   0.0000       3.017812        82.1188 
 105   0.0000       3.129754        85.1649 
 106   0.0000       3.135327        85.3166 
 107   0.0000       3.333658        90.7134 
[...]
 5 C  py              0.0       0.0       0.0       3.5       0.0       0.3
 5 C  dxz            17.7       4.2      14.3       0.0       4.5       0.0
 5 C  dyz             4.1      16.9       4.9       0.0      11.2       0.0
 5 C  dx2y2           0.0       0.0       0.0       0.0       0.0       4.9
 5 C  dxy             0.0       0.0       0.0       0.7       0.0       2.6
 6 H  s               0.0       0.0       0.0       0.0       0.0       0.5
 6 H  pz              2.1       0.0       0.0       0.0       5.9       0.0
 6 H  px              0.0       0.0       0.0       0.0       0.0       2.8
 6 H  py              0.0       0.0       0.0       2.6       0.0       0.0
 7 H  s               0.0       0.0       0.0       0.5       0.0       0.0
 7 H  pz              0.0       4.9       0.0       0.0       3.5       0.0
 7 H  px              0.0       0.0       0.0       2.4       0.0       0.4
 7 H  py              0.0       0.0       0.0       1.2       0.0       0.6
 8 H  s               0.0       0.0       0.0       0.2       0.0       1.8
 8 H  pz              1.2       4.2       0.2       0.0       0.1       0.0
 8 H  px              0.0       0.0       0.0       6.1       0.0       0.5
 8 H  py              0.0       0.0       0.0       0.0       0.0      10.3
 9 H  s               0.0       0.0       0.0       0.2       0.0       1.8
 9 H  pz              1.2       4.2       0.2       0.0       0.1       0.0
 9 H  px              0.0       0.0       0.0       6.0       0.0       1.1
 9 H  py              0.0       0.0       0.0       0.1       0.0       9.7
10 H  s               0.0       0.0       0.0       0.5       0.0       0.0
10 H  pz              0.0       4.9       0.0       0.0       3.5       0.0
10 H  px              0.0       0.0       0.0       2.0       0.0       0.5
10 H  py              0.0       0.0       0.0       1.6       0.0       0.5

                     96        97        98        99       100       101   
                   2.58350   2.61883   2.70378   2.70828   2.71035   2.81272
                   0.00000   0.00000   0.00000   0.00000   0.00000   0.00000
                  --------  --------  --------  --------  --------  --------
 0 C  s               0.0       0.0       9.0       2.1       0.0       0.0
 0 C  px              0.0       0.0       0.5       5.4       0.0       0.0
 0 C  py              2.7       0.0       0.0       0.0       0.4       0.0
 0 C  dz2             0.0       0.0      19.7       0.4       0.0       0.0
 0 C  dxz             0.0       4.8       0.0       0.0       0.0       0.0
 0 C  dyz             0.0       0.0       0.0       0.0       0.0       4.2
 0 C  dx2y2           0.0       0.0       3.0       9.2       0.0       0.0
 0 C  dxy             0.9       0.0       0.0       0.1       0.0       0.0
 1 C  s               4.9       0.0       3.5       3.0       1.6       0.0
 1 C  px              0.6       0.0       0.2       1.5       0.4       0.0
 1 C  py              0.1       0.0       0.2       1.7       2.4       0.0
 1 C  dz2            11.9       0.0       9.6       2.2       0.9       0.0
 1 C  dxz             0.0       0.6       0.0       0.0       0.0       4.7
 1 C  dyz             0.0       5.0       0.0       0.0       0.0       1.4
 1 C  dx2y2           0.5       0.0       1.8       0.7       0.8       0.0
 1 C  dxy             3.6       0.0       1.9       2.1       3.4       0.0
 2 C  s               3.8       0.0       0.0       0.4       1.5       0.0
 2 C  pz              0.0       0.2       0.0       0.0       0.0       0.1
 2 C  px              0.5       0.0       1.5       0.1       0.6       0.0
 2 C  py              0.3       0.0       0.5       0.2       2.6       0.0
 2 C  dz2            11.3       0.0       0.1       0.0       1.0       0.0
 2 C  dxz             0.0       0.1       0.0       0.0       0.0      10.9
 2 C  dyz             0.0      15.4       0.0       0.0       0.0       5.3
 2 C  dx2y2           3.9       0.0       0.2       0.1       2.4       0.0
 2 C  dxy             1.7       0.0       0.0       0.2       2.7       0.0
 3 N  s               0.0       0.0       2.0       0.1       0.0       0.0
 3 N  pz              0.0       1.2       0.0       0.0       0.0       0.0
 3 N  px              0.0       0.0       0.5       0.1       0.0       0.0
 3 N  py              1.4       0.0       0.0       0.0       0.2       0.0
 3 N  dz2             0.0       0.0       9.8       0.1       0.0       0.0
 3 N  dxz             0.0      45.1       0.0       0.0       0.0       0.2
 3 N  dyz             0.0       0.1       0.0       0.0       0.0      50.7
 3 N  dx2y2           0.0       0.0       3.0       0.0       0.0       0.0
 3 N  dxy             0.4       0.0       0.0       0.0       0.1       0.0
 4 C  s               3.8       0.0       0.0       0.4       1.5       0.0
 4 C  pz              0.0       0.2       0.0       0.0       0.0       0.1
 4 C  px              0.4       0.0       1.3       0.1       0.9       0.0
 4 C  py              0.4       0.0       0.8       0.1       2.4       0.0
 4 C  dz2            11.3       0.0       0.1       0.0       1.0       0.0
 4 C  dxz             0.0       0.4       0.0       0.0       0.0       9.2
 4 C  dyz             0.0      15.0       0.0       0.0       0.0       7.0
 4 C  dx2y2           2.7       0.0       0.2       0.0       1.3       0.0
 4 C  dxy             3.0       0.0       0.0       0.2       3.8       0.0
 5 C  s               4.9       0.0       3.5       3.0       1.7       0.0
 5 C  px              0.6       0.0       0.3       1.2       0.3       0.0
 5 C  py              0.1       0.0       0.2       1.9       2.7       0.0
 5 C  dz2            11.9       0.0       9.6       2.2       1.0       0.0
 5 C  dxz             0.0       0.3       0.0       0.0       0.0       5.2
 5 C  dyz             0.0       5.3       0.0       0.0       0.0       0.9
 5 C  dx2y2           1.3       0.0       2.7       1.2       1.6       0.0
 5 C  dxy             2.8       0.0       1.2       1.5       2.6       0.0
 6 H  s               0.0       0.0       1.9       5.9       0.0       0.0
 6 H  pz              0.0       0.8       0.0       0.0       0.0       0.0
 6 H  px              0.0       0.0       7.9      17.5       0.0       0.0
 6 H  py              0.3       0.0       0.0       0.1       0.3       0.0
 7 H  s               0.2       0.0       0.2       4.0       3.3       0.0
 7 H  pz              0.0       1.0       0.0       0.0       0.0       0.0
 7 H  px              1.0       0.0       0.0       2.6       3.4       0.0
 7 H  py              0.6       0.0       1.3       9.9       7.0       0.0
 8 H  s               0.2       0.0       0.0       0.3       3.6       0.0
 8 H  pz              0.0       1.7       0.0       0.0       0.0       0.0
 8 H  px              0.3       0.0       0.3       0.3       3.9       0.0
 8 H  py              1.6       0.0       0.0       0.6       7.5       0.0
 9 H  s               0.2       0.0       0.0       0.3       3.6       0.0
 9 H  pz              0.0       1.7       0.0       0.0       0.0       0.0
 9 H  px              0.5       0.0       0.3       0.4       5.1       0.0
 9 H  py              1.4       0.0       0.0       0.5       6.3       0.0
10 H  s               0.2       0.0       0.1       3.9       3.4       0.0
10 H  pz              0.0       1.0       0.0       0.0       0.0       0.0
10 H  px              0.8       0.0       0.0       1.5       2.4       0.0
10 H  py              0.8       0.0       1.2      10.7       8.2       0.0

                    102       103       104       105       106       107   
                   2.87829   2.93644   3.01006   3.10841   3.12513   3.31731
                   0.00000   0.00000   0.00000   0.00000   0.00000   0.00000
                  --------  --------  --------  --------  --------  --------
 0 C  s               2.5       0.1       0.0       0.0       0.8       0.0
 0 C  px              0.4       0.2       0.0       0.0       1.7       0.0
 0 C  py              0.0       0.0       2.1       0.2       0.0       1.0
 0 C  dz2             1.4       0.3       0.0       0.0       1.9       0.0
 0 C  dx2y2           0.4       4.1       0.3       0.1      13.1       0.0
 0 C  dxy             0.0       0.1      22.6       5.9       0.2       3.7
 1 C  s               0.1       0.5       0.1       0.8       0.9       0.0
 1 C  px              1.0       0.1       0.6       1.1       0.2       0.5
 1 C  py              0.1       0.0       1.4       0.3       0.9       0.2
 1 C  dz2             0.2       1.0       0.0       1.0       1.3       0.0
 1 C  dx2y2          13.2       1.0       9.0       5.3       0.9       3.8
 1 C  dxy             4.9       0.2       4.0       7.9       2.7       3.2
 2 C  s               0.1       6.5       2.6       0.4       0.3       0.5
 2 C  px              0.9       0.6       0.1       1.0       0.2       1.0
 2 C  py              0.2       0.4       1.0       0.6       0.6       1.6
 2 C  dz2             0.0       7.4       0.7       0.7       0.9       0.0
 2 C  dx2y2           9.4       1.1       0.1       3.6       6.6       6.0
 2 C  dxy             9.0       1.4       0.2       8.3       0.8       7.6
 3 N  s               1.7       3.4       0.0       0.0       1.3       0.0
 3 N  px              1.3       1.0       0.0       0.0       0.1       0.0
 3 N  py              0.0       0.0       2.9       0.3       0.0       3.7
 3 N  dz2             2.3      25.3       0.0       0.0       3.9       0.0
 3 N  dx2y2           0.2       0.2       0.3       0.0      24.4       0.5
 3 N  dxy             0.0       0.0      23.4       1.2       0.3      37.0
 4 C  s               0.1       6.5       2.6       0.4       0.3       0.5
 4 C  px              0.8       0.7       0.1       1.2       0.2       0.7
 4 C  py              0.3       0.3       1.0       0.4       0.7       1.9
 4 C  dz2             0.0       7.4       0.7       0.7       0.8       0.0
 4 C  dx2y2          13.3       0.6       0.0       1.5       5.3       8.9
 4 C  dxy             5.0       1.9       0.2      10.3       2.2       4.6
 5 C  s               0.1       0.5       0.1       0.8       0.9       0.0
 5 C  px              1.0       0.1       0.7       1.0       0.3       0.5
 5 C  py              0.2       0.0       1.3       0.4       0.8       0.1
 5 C  dz2             0.2       1.0       0.0       1.0       1.3       0.0
 5 C  dx2y2           9.4       1.2       6.2       8.2       1.6       2.2
 5 C  dxy             8.8       0.1       6.8       5.1       1.9       4.7
 6 H  s               0.2       0.4       0.0       0.0       4.0       0.0
 6 H  px              0.5       0.5       0.0       0.0       5.4       0.0
 6 H  py              0.0       0.0       3.1       1.7       0.0       0.3
 7 H  s               0.1       0.0       0.2       3.1       1.5       0.0
 7 H  px              2.5       0.1       0.8       1.2       1.2       0.5
 7 H  py              0.2       0.2       1.6       3.1       1.1       0.4
 8 H  s               0.1       3.5       0.1       2.8       0.2       0.2
 8 H  px              1.5       2.0       0.0       0.7       1.3       0.6
 8 H  py              1.0       6.0       0.2       3.3       0.0       1.0
 9 H  s               0.0       3.5       0.1       2.8       0.2       0.2
 9 H  px              1.3       2.9       0.0       1.1       1.2       0.4
 9 H  py              1.3       5.1       0.2       2.9       0.0       1.1
10 H  s               0.1       0.0       0.2       3.1       1.5       0.0
10 H  px              2.6       0.1       1.0       0.8       0.9       0.6
10 H  py              0.1       0.2       1.4       3.5       1.3       0.3

                    108   
                   3.64182
                   0.00000
                  --------
 0 C  px              0.5
 0 C  dx2y2          13.4
 0 C  dxy             0.2
 1 C  px              0.2
 1 C  py              0.4
 1 C  dx2y2           3.2
 1 C  dxy            10.0
 2 C  py              0.3
 2 C  dx2y2           4.4
 2 C  dxy             8.8
 3 N  s               0.8
 3 N  px              0.1
 3 N  dz2             0.4
 3 N  dx2y2          15.6
 3 N  dxy             0.2
 4 C  py              0.3
 4 C  dx2y2           1.9
 4 C  dxy            11.3
 5 C  px              0.2
 5 C  py              0.5
 5 C  dx2y2           6.0
 5 C  dxy             7.2
 6 H  s               1.8
 6 H  px              1.4
 7 H  s               1.6
 7 H  px              0.4
 7 H  py              0.9
 8 H  s               1.2
 8 H  px              0.3
 8 H  py              0.7
 9 H  s               1.2
 9 H  px              0.4
 9 H  py              0.6
10 H  s               1.6
10 H  px              0.3
10 H  py              1.0


                      *****************************
                      * MAYER POPULATION ANALYSIS *
                      *****************************

  NA   - Mulliken gross atomic population
  ZA   - Total nuclear charge
  QA   - Mulliken gross atomic charge
  VA   - Mayer's total valence
  BVA  - Mayer's bonded valence
  FA   - Mayer's free valence

  ATOM       NA         ZA         QA         VA         BVA        FA
  0 C      5.9565     6.0000     0.0435     3.8830     3.8830     0.0000
  1 C      6.0169     6.0000    -0.0169     3.8636     3.8636     0.0000
  2 C      5.9777     6.0000     0.0223     4.0094     4.0094    -0.0000
  3 N      7.1572     7.0000    -0.1572     3.1197     3.1197     0.0000
  4 C      5.9777     6.0000     0.0223     4.0092     4.0092     0.0000
  5 C      6.0170     6.0000    -0.0170     3.8639     3.8639     0.0000
  6 H      0.9752     1.0000     0.0248     0.9804     0.9804    -0.0000
  7 H      0.9807     1.0000     0.0193     0.9830     0.9830     0.0000
  8 H      0.9802     1.0000     0.0198     0.9849     0.9849    -0.0000
  9 H      0.9800     1.0000     0.0200     0.9849     0.9849    -0.0000
 10 H      0.9808     1.0000     0.0192     0.9830     0.9830    -0.0000

  Mayer bond orders larger than 0.100000
B(  0-C ,  1-C ) :   1.4074 B(  0-C ,  5-C ) :   1.4077 B(  0-C ,  6-H ) :   0.9831 
B(  1-C ,  2-C ) :   1.3976 B(  1-C ,  7-H ) :   0.9754 B(  2-C ,  3-N ) :   1.5136 
B(  2-C ,  8-H ) :   0.9722 B(  3-N ,  4-C ) :   1.5135 B(  4-C ,  5-C ) :   1.3975 
B(  4-C ,  9-H ) :   0.9722 B(  5-C , 10-H ) :   0.9753 

-------
TIMINGS
-------

Total SCF time: 0 days 0 hours 0 min 58 sec 

Total time                  ....      58.089 sec
Sum of individual times     ....      57.590 sec  ( 99.1%)

Fock matrix formation       ....      54.723 sec  ( 94.2%)
  Split-RI-J                ....       2.566 sec  (  4.7% of F)
  Chain of spheres X        ....      40.494 sec  ( 74.0% of F)
  XC integration            ....       8.027 sec  ( 14.7% of F)
    Basis function eval.    ....       3.547 sec  ( 44.2% of XC)
    Density eval.           ....       1.401 sec  ( 17.5% of XC)
    XC-Functional eval.     ....       0.846 sec  ( 10.5% of XC)
    XC-Potential eval.      ....       1.913 sec  ( 23.8% of XC)
Diagonalization             ....       0.002 sec  (  0.0%)
Density matrix formation    ....       0.001 sec  (  0.0%)
Population analysis         ....       0.097 sec  (  0.2%)
Initial guess               ....       0.005 sec  (  0.0%)
Orbital Transformation      ....       0.000 sec  (  0.0%)
Orbital Orthonormalization  ....       0.002 sec  (  0.0%)
DIIS solution               ....       0.000 sec  (  0.0%)
SOSCF solution              ....       0.144 sec  (  0.2%)
Grid generation             ....       2.617 sec  (  4.5%)

Maximum memory used throughout the entire SCF-calculation: 57.3 MB

-------------------------   --------------------
FINAL SINGLE POINT ENERGY      -247.957209437780
-------------------------   --------------------

                                *** OPTIMIZATION RUN DONE ***

                            ***************************************
                            *     ORCA property calculations      *
                            ***************************************

                                    ---------------------
                                    Active property flags
                                    ---------------------
   (+) Dipole Moment


------------------------------------------------------------------------------
                       ORCA ELECTRIC PROPERTIES CALCULATION
------------------------------------------------------------------------------

Dipole Moment Calculation                       ... on
Quadrupole Moment Calculation                   ... off
Polarizability Calculation                      ... off
GBWName                                         ... Pyridine_DFT.gbw
Electron density                                ... Pyridine_DFT.scfp
SHARK General Contraction Test:  Segmented basis detected
   -> Pre-screening matrix found on disk - Trying to read with NShells=51
   -> Passing Pre-screening matrix on to SHARK ...ok
   -> Leaving CheckPreScreeningMatrix
----------------------
SHARK INTEGRAL PACKAGE
----------------------

Number of atoms                             ...     11
Number of basis functions                   ...    109
Number of shells                            ...     51
Maximum angular momentum                    ...      2
Integral batch strategy                     ... SHARK/LIBINT Hybrid
RI-J (if used) integral strategy            ... SPLIT-RIJ (Revised 2003 algorithm where possible)
Printlevel                                  ...      2
Contraction scheme used                     ... SEGMENTED contraction
Coulomb Range Separation                    ... NOT USED
Exchange Range Separation                   ... NOT USED
Finite Nucleus Model                        ... NOT USED
Auxiliary Coulomb fitting basis             ... AVAILABLE
   # of basis functions in Aux-J            ...    349
   # of shells in Aux-J                     ...    115
   Maximum angular momentum in Aux-J        ...      4
Auxiliary J/K fitting basis                 ... NOT available
Auxiliary Correlation fitting basis         ... NOT available
Auxiliary 'external' fitting basis          ... NOT available
Integral threshold                          ...     2.500000e-11
Primitive cut-off                           ...     2.500000e-12
Primitive pair pre-selection threshold      ...     2.500000e-12

The origin for moment calculation is the CENTER OF MASS  = ( 0.001693,  0.000853  0.013384)

-------------
DIPOLE MOMENT
-------------
                                X             Y             Z
Electronic contribution:      1.07120       0.05919       0.00699
Nuclear contribution   :     -2.21453      -0.12250      -0.01452
                        -----------------------------------------
Total Dipole Moment    :     -1.14333      -0.06331      -0.00753
                        -----------------------------------------
Magnitude (a.u.)       :      1.14510
Magnitude (Debye)      :      2.91062



--------------------
Rotational spectrum 
--------------------
 
Rotational constants in cm-1:     0.199738     0.193272     0.098226 
Rotational constants in MHz :  5987.985792  5794.135700  2944.733025 

 Dipole components along the rotational axes: 
x,y,z [a.u.] :    -1.145102     0.001704    -0.000038 
x,y,z [Debye]:    -2.910618     0.004331    -0.000096 

 

Timings for individual modules:

Sum of individual times         ...      753.424 sec (=  12.557 min)
GTO integral calculation        ...        4.171 sec (=   0.070 min)   0.6 %
SCF iterations                  ...      570.397 sec (=   9.507 min)  75.7 %
SCF Gradient evaluation         ...      178.075 sec (=   2.968 min)  23.6 %
Geometry relaxation             ...        0.781 sec (=   0.013 min)   0.1 %
                             ****ORCA TERMINATED NORMALLY****
TOTAL RUN TIME: 0 days 0 hours 12 minutes 36 seconds 601 msec
