
                                 *****************
                                 * O   R   C   A *
                                 *****************

                                            #,                                       
                                            ###                                      
                                            ####                                     
                                            #####                                    
                                            ######                                   
                                           ########,                                 
                                     ,,################,,,,,                         
                               ,,#################################,,                 
                          ,,##########################################,,             
                       ,#########################################, ''#####,          
                    ,#############################################,,   '####,        
                  ,##################################################,,,,####,       
                ,###########''''           ''''###############################       
              ,#####''   ,,,,##########,,,,          '''####'''          '####       
            ,##' ,,,,###########################,,,                        '##       
           ' ,,###''''                  '''############,,,                           
         ,,##''                                '''############,,,,        ,,,,,,###''
      ,#''                                            '''#######################'''  
     '                                                          ''''####''''         
             ,#######,   #######,   ,#######,      ##                                
            ,#'     '#,  ##    ##  ,#'     '#,    #''#        ######   ,####,        
            ##       ##  ##   ,#'  ##            #'  '#       #        #'  '#        
            ##       ##  #######   ##           ,######,      #####,   #    #        
            '#,     ,#'  ##    ##  '#,     ,#' ,#      #,         ##   #,  ,#        
             '#######'   ##     ##  '#######'  #'      '#     #####' # '####'        



                  #######################################################
                  #                        -***-                        #
                  #          Department of theory and spectroscopy      #
                  #    Directorship and core code : Frank Neese         #
                  #        Max Planck Institute fuer Kohlenforschung    #
                  #                Kaiser Wilhelm Platz 1               #
                  #                 D-45470 Muelheim/Ruhr               #
                  #                      Germany                        #
                  #                                                     #
                  #                  All rights reserved                #
                  #                        -***-                        #
                  #######################################################


                         Program Version 5.0.4 -  RELEASE  -


 With contributions from (in alphabetic order):
   Daniel Aravena         : Magnetic Suceptibility
   Michael Atanasov       : Ab Initio Ligand Field Theory (pilot matlab implementation)
   Alexander A. Auer      : GIAO ZORA, VPT2 properties, NMR spectrum
   Ute Becker             : Parallelization
   Giovanni Bistoni       : ED, misc. LED, open-shell LED, HFLD
   Martin Brehm           : Molecular dynamics
   Dmytro Bykov           : SCF Hessian
   Vijay G. Chilkuri      : MRCI spin determinant printing, contributions to CSF-ICE
   Dipayan Datta          : RHF DLPNO-CCSD density
   Achintya Kumar Dutta   : EOM-CC, STEOM-CC
   Dmitry Ganyushin       : Spin-Orbit,Spin-Spin,Magnetic field MRCI
   Miquel Garcia          : C-PCM and meta-GGA Hessian, CC/C-PCM, Gaussian charge scheme
   Yang Guo               : DLPNO-NEVPT2, F12-NEVPT2, CIM, IAO-localization
   Andreas Hansen         : Spin unrestricted coupled pair/coupled cluster methods
   Benjamin Helmich-Paris : MC-RPA, TRAH-SCF, COSX integrals
   Lee Huntington         : MR-EOM, pCC
   Robert Izsak           : Overlap fitted RIJCOSX, COSX-SCS-MP3, EOM
   Marcus Kettner         : VPT2
   Christian Kollmar      : KDIIS, OOCD, Brueckner-CCSD(T), CCSD density, CASPT2, CASPT2-K
   Simone Kossmann        : Meta GGA functionals, TD-DFT gradient, OOMP2, MP2 Hessian
   Martin Krupicka        : Initial AUTO-CI
   Lucas Lang             : DCDCAS
   Marvin Lechner         : AUTO-CI (C++ implementation), FIC-MRCC
   Dagmar Lenk            : GEPOL surface, SMD
   Dimitrios Liakos       : Extrapolation schemes; Compound Job, initial MDCI parallelization
   Dimitrios Manganas     : Further ROCIS development; embedding schemes
   Dimitrios Pantazis     : SARC Basis sets
   Anastasios Papadopoulos: AUTO-CI, single reference methods and gradients
   Taras Petrenko         : DFT Hessian,TD-DFT gradient, ASA, ECA, R-Raman, ABS, FL, XAS/XES, NRVS
   Peter Pinski           : DLPNO-MP2, DLPNO-MP2 Gradient
   Christoph Reimann      : Effective Core Potentials
   Marius Retegan         : Local ZFS, SOC
   Christoph Riplinger    : Optimizer, TS searches, QM/MM, DLPNO-CCSD(T), (RO)-DLPNO pert. Triples
   Tobias Risthaus        : Range-separated hybrids, TD-DFT gradient, RPA, STAB
   Michael Roemelt        : Original ROCIS implementation
   Masaaki Saitow         : Open-shell DLPNO-CCSD energy and density
   Barbara Sandhoefer     : DKH picture change effects
   Avijit Sen             : IP-ROCIS
   Kantharuban Sivalingam : CASSCF convergence, NEVPT2, FIC-MRCI
   Bernardo de Souza      : ESD, SOC TD-DFT
   Georgi Stoychev        : AutoAux, RI-MP2 NMR, DLPNO-MP2 response
   Willem Van den Heuvel  : Paramagnetic NMR
   Boris Wezisla          : Elementary symmetry handling
   Frank Wennmohs         : Technical directorship


 We gratefully acknowledge several colleagues who have allowed us to
 interface, adapt or use parts of their codes:
   Stefan Grimme, W. Hujo, H. Kruse, P. Pracht,  : VdW corrections, initial TS optimization,
                  C. Bannwarth, S. Ehlert          DFT functionals, gCP, sTDA/sTD-DF
   Ed Valeev, F. Pavosevic, A. Kumar             : LibInt (2-el integral package), F12 methods
   Garnet Chan, S. Sharma, J. Yang, R. Olivares  : DMRG
   Ulf Ekstrom                                   : XCFun DFT Library
   Mihaly Kallay                                 : mrcc  (arbitrary order and MRCC methods)
   Jiri Pittner, Ondrej Demel                    : Mk-CCSD
   Frank Weinhold                                : gennbo (NPA and NBO analysis)
   Christopher J. Cramer and Donald G. Truhlar   : smd solvation model
   Lars Goerigk                                  : TD-DFT with DH, B97 family of functionals
   V. Asgeirsson, H. Jonsson                     : NEB implementation
   FAccTs GmbH                                   : IRC, NEB, NEB-TS, DLPNO-Multilevel, CI-OPT
                                                   MM, QMMM, 2- and 3-layer-ONIOM, Crystal-QMMM,
                                                   LR-CPCM, SF, NACMEs, symmetry and pop. for TD-DFT,
                                                   nearIR, NL-DFT gradient (VV10), updates on ESD,
                                                   ML-optimized integration grids
   S Lehtola, MJT Oliveira, MAL Marques          : LibXC Library
   Liviu Ungur et al                             : ANISO software


 Your calculation uses the libint2 library for the computation of 2-el integrals
 For citations please refer to: http://libint.valeyev.net

 Your ORCA version has been built with support for libXC version: 5.1.0
 For citations please refer to: https://tddft.org/programs/libxc/

 This ORCA versions uses:
   CBLAS   interface :  Fast vector & matrix operations
   LAPACKE interface :  Fast linear algebra routines
   SCALAPACK package :  Parallel linear algebra routines
   Shared memory     :  Shared parallel matrices
   BLAS/LAPACK       :  OpenBLAS 0.3.15  USE64BITINT DYNAMIC_ARCH NO_AFFINITY SkylakeX SINGLE_THREADED
        Core in use  :  SkylakeX
   Copyright (c) 2011-2014, The OpenBLAS Project


================================================================================

----- Orbital basis set information -----
Your calculation utilizes the basis: def2-SVP
   F. Weigend and R. Ahlrichs, Phys. Chem. Chem. Phys. 7, 3297 (2005).

----- AuxJ basis set information -----
Your calculation utilizes the auxiliary basis: def2/J
   F. Weigend, Phys. Chem. Chem. Phys. 8, 1057 (2006).

================================================================================
                                        WARNINGS
                       Please study these warnings very carefully!
================================================================================


WARNING: Geometry Optimization
  ===> : Switching off AutoStart
         For restart on a previous wavefunction, please use MOREAD

INFO   : the flag for use of the SHARK integral package has been found!

================================================================================
                                       INPUT FILE
================================================================================
NAME = Imidazole_DFT.inp
|  1> ## avogadro generated ORCA input file 
|  2> # Advanced Mode
|  3> # 
|  4> ! B3LYP OPT def2-SVP NormalPrint defgrid2 NormalSCF 
|  5> 
|  6> ! CPCM
|  7> %cpcm
|  8> epsilon 69.0
|  9> refrac 1.34
| 10> end
| 11> 
| 12> %scf
| 13> 	MaxIter 125
| 14> 	CNVDIIS 1
| 15> 	CNVSOSCF 1 
| 16> end
| 17> 
| 18> * xyz 0 1
| 19>    C       -1.18910        0.00301        0.00007
| 20>    C       -0.34314        1.08661       -0.00013
| 21>    N        0.96604        0.67988        0.00007
| 22>    C        0.92136       -0.63244        0.00038
| 23>    N       -0.36604       -1.08899        0.00040
| 24>    H       -2.26610       -0.08224        0.00001
| 25>    H       -0.60557        2.13670       -0.00040
| 26>    H        1.77537       -1.29654        0.00061
| 27>    H       -0.65047       -2.05876        0.00061
| 28> *
| 29> 
| 30> 
| 31>                          ****END OF INPUT****
================================================================================

                       *****************************
                       * Geometry Optimization Run *
                       *****************************

Geometry optimization settings:
Update method            Update   .... BFGS
Choice of coordinates    CoordSys .... Z-matrix Internals
Initial Hessian          InHess   .... Almoef's Model

Convergence Tolerances:
Energy Change            TolE     ....  5.0000e-06 Eh
Max. Gradient            TolMAXG  ....  3.0000e-04 Eh/bohr
RMS Gradient             TolRMSG  ....  1.0000e-04 Eh/bohr
Max. Displacement        TolMAXD  ....  4.0000e-03 bohr
RMS Displacement         TolRMSD  ....  2.0000e-03 bohr
Strict Convergence                ....  False
------------------------------------------------------------------------------
                        ORCA OPTIMIZATION COORDINATE SETUP
------------------------------------------------------------------------------

The optimization will be done in new redundant internal coordinates
Making redundant internal coordinates   ...  (new redundants) done
Evaluating the initial hessian          ...  (Almloef) done
Evaluating the coordinates              ...  done
Calculating the B-matrix                .... done
Calculating the G-matrix                .... done
Diagonalizing the G-matrix              .... done
The first mode is                       ....   17
The number of degrees of freedom        ....   21

    -----------------------------------------------------------------
                    Redundant Internal Coordinates


    -----------------------------------------------------------------
         Definition                    Initial Value    Approx d2E/dq
    -----------------------------------------------------------------
      1. B(C   1,C   0)                  1.3747         0.660887   
      2. B(N   2,C   1)                  1.3709         0.600260   
      3. B(C   3,N   2)                  1.3131         0.742328   
      4. B(N   4,C   3)                  1.3660         0.611274   
      5. B(N   4,C   0)                  1.3674         0.607951   
      6. B(H   5,C   0)                  1.0804         0.373069   
      7. B(H   6,C   1)                  1.0824         0.370315   
      8. B(H   7,C   3)                  1.0818         0.371068   
      9. B(H   8,N   4)                  1.0106         0.431722   
     10. A(C   1,C   0,N   4)          105.0151         0.434670   
     11. A(C   1,C   0,H   5)          132.5048         0.358904   
     12. A(N   4,C   0,H   5)          122.4802         0.351672   
     13. A(N   2,C   1,H   6)          121.2902         0.350478   
     14. A(C   0,C   1,N   2)          110.7202         0.433676   
     15. A(C   0,C   1,H   6)          127.9896         0.358452   
     16. A(C   1,N   2,C   3)          105.3088         0.439950   
     17. A(N   2,C   3,H   7)          125.9196         0.363483   
     18. A(N   2,C   3,N   4)          111.4760         0.441397   
     19. A(N   4,C   3,H   7)          122.6044         0.351677   
     20. A(C   3,N   4,H   8)          125.8722         0.357666   
     21. A(C   0,N   4,H   8)          126.6478         0.357335   
     22. A(C   0,N   4,C   3)          107.4800         0.425824   
     23. D(N   2,C   1,C   0,N   4)     -0.0000         0.030484   
     24. D(H   6,C   1,C   0,H   5)      0.0003         0.030484   
     25. D(H   6,C   1,C   0,N   4)   -179.9995         0.030484   
     26. D(N   2,C   1,C   0,H   5)    179.9999         0.030484   
     27. D(C   3,N   2,C   1,H   6)    179.9999         0.026317   
     28. D(C   3,N   2,C   1,C   0)      0.0003         0.026317   
     29. D(N   4,C   3,N   2,C   1)     -0.0005         0.041760   
     30. D(H   7,C   3,N   2,C   1)   -179.9997         0.041760   
     31. D(C   0,N   4,C   3,H   7)    179.9998         0.030191   
     32. D(C   0,N   4,C   3,N   2)      0.0006         0.030191   
     33. D(H   8,N   4,C   0,H   5)      0.0005         0.029839   
     34. D(H   8,N   4,C   0,C   1)   -179.9996         0.029839   
     35. D(C   3,N   4,C   0,H   5)    179.9998         0.029839   
     36. D(H   8,N   4,C   3,N   2)    179.9999         0.030191   
     37. D(C   3,N   4,C   0,C   1)     -0.0003         0.029839   
     38. D(H   8,N   4,C   3,H   7)     -0.0009         0.030191   
    -----------------------------------------------------------------

Number of atoms                         .... 9
Number of degrees of freedom            .... 38

         *************************************************************
         *                GEOMETRY OPTIMIZATION CYCLE   1            *
         *************************************************************
---------------------------------
CARTESIAN COORDINATES (ANGSTROEM)
---------------------------------
  C     -1.189100    0.003010    0.000070
  C     -0.343140    1.086610   -0.000130
  N      0.966040    0.679880    0.000070
  C      0.921360   -0.632440    0.000380
  N     -0.366040   -1.088990    0.000400
  H     -2.266100   -0.082240    0.000010
  H     -0.605570    2.136700   -0.000400
  H      1.775370   -1.296540    0.000610
  H     -0.650470   -2.058760    0.000610

----------------------------
CARTESIAN COORDINATES (A.U.)
----------------------------
  NO LB      ZA    FRAG     MASS         X           Y           Z
   0 C     6.0000    0    12.011   -2.247073    0.005688    0.000132
   1 C     6.0000    0    12.011   -0.648441    2.053395   -0.000246
   2 N     7.0000    0    14.007    1.825551    1.284787    0.000132
   3 C     6.0000    0    12.011    1.741118   -1.195138    0.000718
   4 N     7.0000    0    14.007   -0.691715   -2.057893    0.000756
   5 H     1.0000    0     1.008   -4.282308   -0.155411    0.000019
   6 H     1.0000    0     1.008   -1.144361    4.037778   -0.000756
   7 H     1.0000    0     1.008    3.354963   -2.450106    0.001153
   8 H     1.0000    0     1.008   -1.229210   -3.890493    0.001153

--------------------------------
INTERNAL COORDINATES (ANGSTROEM)
--------------------------------
 C      0   0   0     0.000000000000     0.00000000     0.00000000
 C      1   0   0     1.374713541651     0.00000000     0.00000000
 N      2   1   0     1.370905396189   110.72020902     0.00000000
 C      3   2   1     1.313080416768   105.30876308     0.00000000
 N      4   3   2     1.365956318079   111.47597853     0.00000000
 H      1   2   3     1.080368717661   132.50475737   179.99986572
 H      2   1   3     1.082385599452   127.98956337   180.00046540
 H      4   3   2     1.081832677913   125.91957861   180.00027910
 H      5   4   3     1.010620760671   125.87222683   179.99987989

---------------------------
INTERNAL COORDINATES (A.U.)
---------------------------
 C      0   0   0     0.000000000000     0.00000000     0.00000000
 C      1   0   0     2.597832106314     0.00000000     0.00000000
 N      2   1   0     2.590635754312   110.72020902     0.00000000
 C      3   2   1     2.481362379507   105.30876308     0.00000000
 N      4   3   2     2.581283352069   111.47597853     0.00000000
 H      1   2   3     2.041601000035   132.50475737   179.99986572
 H      2   1   3     2.045412354264   127.98956337   180.00046540
 H      4   3   2     2.044367483982   125.91957861   180.00027910
 H      5   4   3     1.909796462924   125.87222683   179.99987989

---------------------
BASIS SET INFORMATION
---------------------
There are 3 groups of distinct atoms

 Group   1 Type C   : 7s4p1d contracted to 3s2p1d pattern {511/31/1}
 Group   2 Type N   : 7s4p1d contracted to 3s2p1d pattern {511/31/1}
 Group   3 Type H   : 4s1p contracted to 2s1p pattern {31/1}

Atom   0C    basis set group =>   1
Atom   1C    basis set group =>   1
Atom   2N    basis set group =>   2
Atom   3C    basis set group =>   1
Atom   4N    basis set group =>   2
Atom   5H    basis set group =>   3
Atom   6H    basis set group =>   3
Atom   7H    basis set group =>   3
Atom   8H    basis set group =>   3
---------------------------------
AUXILIARY/J BASIS SET INFORMATION
---------------------------------
There are 3 groups of distinct atoms

 Group   1 Type C   : 12s5p4d2f1g contracted to 6s4p3d1f1g pattern {711111/2111/211/2/1}
 Group   2 Type N   : 12s5p4d2f1g contracted to 6s4p3d1f1g pattern {711111/2111/211/2/1}
 Group   3 Type H   : 5s2p1d contracted to 3s1p1d pattern {311/2/1}

Atom   0C    basis set group =>   1
Atom   1C    basis set group =>   1
Atom   2N    basis set group =>   2
Atom   3C    basis set group =>   1
Atom   4N    basis set group =>   2
Atom   5H    basis set group =>   3
Atom   6H    basis set group =>   3
Atom   7H    basis set group =>   3
Atom   8H    basis set group =>   3
------------------------------------------------------------------------------
                           ORCA GTO INTEGRAL CALCULATION
                           -- RI-GTO INTEGRALS CHOSEN --
------------------------------------------------------------------------------
------------------------------------------------------------------------------
                   ___                                                        
                  /   \      - P O W E R E D   B Y -                         
                 /     \                                                     
                 |  |  |   _    _      __       _____    __    __             
                 |  |  |  | |  | |    /  \     |  _  \  |  |  /  |          
                  \  \/   | |  | |   /    \    | | | |  |  | /  /          
                 / \  \   | |__| |  /  /\  \   | |_| |  |  |/  /          
                |  |  |   |  __  | /  /__\  \  |    /   |      \           
                |  |  |   | |  | | |   __   |  |    \   |  |\   \          
                \     /   | |  | | |  |  |  |  | |\  \  |  | \   \       
                 \___/    |_|  |_| |__|  |__|  |_| \__\ |__|  \__/        
                                                                              
                      - O R C A' S   B I G   F R I E N D -                    
                                      &                                       
                       - I N T E G R A L  F E E D E R -                       
                                                                              
 v1 FN, 2020, v2 2021                                                         
------------------------------------------------------------------------------


Reading SHARK input file Imidazole_DFT.SHARKINP.tmp ... SHARK General Contraction Test:  Segmented basis detected
   -> Pre-screening matrix *NOT* found on disk - recalculating with NShells=42
   -> Leaving CheckPreScreeningMatrix
ok
----------------------
SHARK INTEGRAL PACKAGE
----------------------

Number of atoms                             ...      9
Number of basis functions                   ...     90
Number of shells                            ...     42
Maximum angular momentum                    ...      2
Integral batch strategy                     ... SHARK/LIBINT Hybrid
RI-J (if used) integral strategy            ... SPLIT-RIJ (Revised 2003 algorithm where possible)
Printlevel                                  ...      2
Contraction scheme used                     ... SEGMENTED contraction
Coulomb Range Separation                    ... NOT USED
Exchange Range Separation                   ... NOT USED
Finite Nucleus Model                        ... NOT USED
Auxiliary Coulomb fitting basis             ... AVAILABLE
   # of basis functions in Aux-J            ...    289
   # of shells in Aux-J                     ...     95
   Maximum angular momentum in Aux-J        ...      4
Auxiliary J/K fitting basis                 ... NOT available
Auxiliary Correlation fitting basis         ... NOT available
Auxiliary 'external' fitting basis          ... NOT available
Integral threshold                          ...     2.500000e-11
Primitive cut-off                           ...     2.500000e-12
Primitive pair pre-selection threshold      ...     2.500000e-12

Calculating pre-screening integrals         ... done (  0.0 sec) Dimension = 42
Organizing shell pair data                  ... done (  0.0 sec)
Shell pair information
Total number of shell pairs                 ...       903
Shell pairs after pre-screening             ...       898
Total number of primitive shell pairs       ...      3317
Primitive shell pairs kept                  ...      2695
          la=0 lb=0:    271 shell pairs
          la=1 lb=0:    322 shell pairs
          la=1 lb=1:    105 shell pairs
          la=2 lb=0:    115 shell pairs
          la=2 lb=1:     70 shell pairs
          la=2 lb=2:     15 shell pairs

Calculating one electron integrals          ... done (  0.0 sec)
Calculating RI/J V-Matrix + Cholesky decomp.... done (  0.0 sec)
Calculating Nuclear repulsion               ... done (  0.0 sec) ENN=    163.443689297913 Eh

SHARK setup successfully completed in   0.2 seconds

Maximum memory used throughout the entire GTOINT-calculation: 10.3 MB
-------------------------------------------------------------------------------
                                 ORCA SCF
-------------------------------------------------------------------------------

------------
SCF SETTINGS
------------
Hamiltonian:
 Density Functional     Method          .... DFT(GTOs)
 Exchange Functional    Exchange        .... B88
   X-Alpha parameter    XAlpha          ....  0.666667
   Becke's b parameter  XBeta           ....  0.004200
 Correlation Functional Correlation     .... LYP
 LDA part of GGA corr.  LDAOpt          .... VWN-5
 Gradients option       PostSCFGGA      .... off
 Hybrid DFT is turned on
   Fraction HF Exchange ScalHFX         ....  0.200000
   Scaling of DF-GGA-X  ScalDFX         ....  0.720000
   Scaling of DF-GGA-C  ScalDFC         ....  0.810000
   Scaling of DF-LDA-C  ScalLDAC        ....  1.000000
   Perturbative correction              ....  0.000000
   Density functional embedding theory  .... OFF
   NL short-range parameter             ....  4.800000
 RI-approximation to the Coulomb term is turned on
   Number of AuxJ basis functions       .... 289
   RIJ-COSX (HFX calculated with COS-X)).... on


General Settings:
 Integral files         IntName         .... Imidazole_DFT
 Hartree-Fock type      HFTyp           .... RHF
 Total Charge           Charge          ....    0
 Multiplicity           Mult            ....    1
 Number of Electrons    NEL             ....   36
 Basis Dimension        Dim             ....   90
 Nuclear Repulsion      ENuc            ....    163.4436892979 Eh

Convergence Acceleration:
 DIIS                   CNVDIIS         .... on
   Start iteration      DIISMaxIt       ....    12
   Startup error        DIISStart       ....  0.200000
   # of expansion vecs  DIISMaxEq       ....     5
   Bias factor          DIISBfac        ....   1.050
   Max. coefficient     DIISMaxC        ....  10.000
 Trust-Rad. Augm. Hess. CNVTRAH         .... auto
   Auto Start mean grad. ratio tolernc. ....  1.125000
   Auto Start start iteration           ....    20
   Auto Start num. interpolation iter.  ....    10
   Max. Number of Micro iterations      ....    16
   Max. Number of Macro iterations      .... Maxiter - #DIIS iter
   Number of Davidson start vectors     ....     2
   Converg. threshold I  (grad. norm)   ....   1.000e-05
   Converg. threshold II (energy diff.) ....   1.000e-08
   Grad. Scal. Fac. for Micro threshold ....   0.100
   Minimum threshold for Micro iter.    ....   0.010
   NR start threshold (gradient norm)   ....   0.001
   Initial trust radius                 ....   0.400
   Minimum AH scaling param. (alpha)    ....   1.000
   Maximum AH scaling param. (alpha)    .... 1000.000
   Orbital update algorithm             .... Taylor
   White noise on init. David. guess    .... on
   Maximum white noise                  ....   0.010
   Quad. conv. algorithm                .... NR
 SOSCF                  CNVSOSCF        .... on
   Start iteration      SOSCFMaxIt      ....   150
   Startup grad/error   SOSCFStart      ....  0.003300
 Level Shifting         CNVShift        .... on
   Level shift para.    LevelShift      ....    0.2500
   Turn off err/grad.   ShiftErr        ....    0.0010
 Zerner damping         CNVZerner       .... off
 Static damping         CNVDamp         .... on
   Fraction old density DampFac         ....    0.7000
   Max. Damping (<1)    DampMax         ....    0.9800
   Min. Damping (>=0)   DampMin         ....    0.0000
   Turn off err/grad.   DampErr         ....    0.1000
 Fernandez-Rico         CNVRico         .... off

SCF Procedure:
 Maximum # iterations   MaxIter         ....   125
 SCF integral mode      SCFMode         .... Direct
   Integral package                     .... SHARK and LIBINT hybrid scheme
 Reset frequency        DirectResetFreq ....    20
 Integral Threshold     Thresh          ....  2.500e-11 Eh
 Primitive CutOff       TCut            ....  2.500e-12 Eh

Convergence Tolerance:
 Convergence Check Mode ConvCheckMode   .... Total+1el-Energy
 Convergence forced     ConvForced      .... 0
 Energy Change          TolE            ....  1.000e-08 Eh
 1-El. energy change                    ....  1.000e-05 Eh
 Orbital Gradient       TolG            ....  1.000e-05
 Orbital Rotation angle TolX            ....  1.000e-05
 DIIS Error             TolErr          ....  5.000e-07


Diagonalization of the overlap matrix:
Smallest eigenvalue                        ... 1.845e-03
Time for diagonalization                   ...    0.002 sec
Threshold for overlap eigenvalues          ... 1.000e-08
Number of eigenvalues below threshold      ... 0
Time for construction of square roots      ...    0.004 sec
Total time needed                          ...    0.006 sec

SHARK General Contraction Test:  Segmented basis detected
   -> Pre-screening matrix found on disk - Trying to read with NShells=42
   -> Passing Pre-screening matrix on to SHARK ...ok
   -> Leaving CheckPreScreeningMatrix
----------------------
SHARK INTEGRAL PACKAGE
----------------------

Number of atoms                             ...      9
Number of basis functions                   ...     90
Number of shells                            ...     42
Maximum angular momentum                    ...      2
Integral batch strategy                     ... SHARK/LIBINT Hybrid
RI-J (if used) integral strategy            ... SPLIT-RIJ (Revised 2003 algorithm where possible)
Printlevel                                  ...      2
Contraction scheme used                     ... SEGMENTED contraction
Coulomb Range Separation                    ... NOT USED
Exchange Range Separation                   ... NOT USED
Finite Nucleus Model                        ... NOT USED
Auxiliary Coulomb fitting basis             ... AVAILABLE
   # of basis functions in Aux-J            ...    289
   # of shells in Aux-J                     ...     95
   Maximum angular momentum in Aux-J        ...      4
Auxiliary J/K fitting basis                 ... NOT available
Auxiliary Correlation fitting basis         ... NOT available
Auxiliary 'external' fitting basis          ... NOT available
Integral threshold                          ...     2.500000e-11
Primitive cut-off                           ...     2.500000e-12
Primitive pair pre-selection threshold      ...     2.500000e-12

Time for model grid setup =    0.086 sec

------------------------------
INITIAL GUESS: MODEL POTENTIAL
------------------------------
Loading Hartree-Fock densities                     ... done
Calculating cut-offs                               ... done
Initializing the effective Hamiltonian             ... done
Setting up the integral package (SHARK)            ... done
Starting the Coulomb interaction                   ...     -> Generating integrals - 
    -> L=0 0 :     0.007 sec done=     20320 skipped=         5 prim-skipped=         0
    -> L=1 0 :     0.029 sec done=     23808 skipped=       170 prim-skipped=         0
    -> L=1 1 :     0.004 sec done=      7808 skipped=        25 prim-skipped=         0
    -> L=2 0 :     0.004 sec done=      8625 skipped=         0 prim-skipped=         0
    -> L=2 1 :     0.003 sec done=      5250 skipped=         0 prim-skipped=         0
    -> L=2 2 :     0.001 sec done=      1125 skipped=         0 prim-skipped=         0
done (   0.1 sec)
Reading the grid                                   ... done
Mapping shells                                     ... done
Starting the XC term evaluation                    ... done (   0.1 sec)
  promolecular density results
     # of electrons  =     35.996676143
     EX              =    -29.775549791
     EC              =     -1.218424504
     EX+EC           =    -30.993974295
Transforming the Hamiltonian                       ... done (   0.0 sec)
Diagonalizing the Hamiltonian                      ... done (   0.0 sec)
Back transforming the eigenvectors                 ... done (   0.0 sec)
Now organizing SCF variables                       ... done
                      ------------------
                      INITIAL GUESS DONE (   0.2 sec)
                      ------------------
-------------------
DFT GRID GENERATION
-------------------

General Integration Accuracy     IntAcc      ... 4.388
Radial Grid Type                 RadialGrid  ... OptM3 with GC (2021)
Angular Grid (max. ang.)         AngularGrid ... 4 (Lebedev-302)
Angular grid pruning method      GridPruning ... 4 (adaptive)
Weight generation scheme         WeightScheme... Becke
Basis function cutoff            BFCut       ... 1.0000e-11
Integration weight cutoff        WCut        ... 1.0000e-14
Angular grids for H and He will be reduced by one unit
Partially contracted basis set               ... off
Rotationally invariant grid construction     ... off

Total number of grid points                  ...    43259
Total number of batches                      ...      679
Average number of points per batch           ...       63
Average number of grid points per atom       ...     4807
Time for grid setup =    0.415 sec

--------------------
COSX GRID GENERATION
--------------------

GRIDX 1
-------
General Integration Accuracy     IntAcc      ... 3.816
Radial Grid Type                 RadialGrid  ... OptM3 with GC (2021)
Angular Grid (max. ang.)         AngularGrid ... 1 (Lebedev-50)
Angular grid pruning method      GridPruning ... 4 (adaptive)
Weight generation scheme         WeightScheme... Becke
Basis function cutoff            BFCut       ... 1.0000e-11
Integration weight cutoff        WCut        ... 1.0000e-14
Angular grids for H and He will be reduced by one unit
Partially contracted basis set               ... on
Rotationally invariant grid construction     ... off

Total number of grid points                  ...     5529
Total number of batches                      ...       90
Average number of points per batch           ...       61
Average number of grid points per atom       ...      614
UseSFitting                                  ... on

GRIDX 2
-------
General Integration Accuracy     IntAcc      ... 4.020
Radial Grid Type                 RadialGrid  ... OptM3 with GC (2021)
Angular Grid (max. ang.)         AngularGrid ... 2 (Lebedev-110)
Angular grid pruning method      GridPruning ... 4 (adaptive)
Weight generation scheme         WeightScheme... Becke
Basis function cutoff            BFCut       ... 1.0000e-11
Integration weight cutoff        WCut        ... 1.0000e-14
Angular grids for H and He will be reduced by one unit
Partially contracted basis set               ... on
Rotationally invariant grid construction     ... off

Total number of grid points                  ...    12283
Total number of batches                      ...      197
Average number of points per batch           ...       62
Average number of grid points per atom       ...     1365
UseSFitting                                  ... on

GRIDX 3
-------
General Integration Accuracy     IntAcc      ... 4.338
Radial Grid Type                 RadialGrid  ... OptM3 with GC (2021)
Angular Grid (max. ang.)         AngularGrid ... 3 (Lebedev-194)
Angular grid pruning method      GridPruning ... 4 (adaptive)
Weight generation scheme         WeightScheme... Becke
Basis function cutoff            BFCut       ... 1.0000e-11
Integration weight cutoff        WCut        ... 1.0000e-14
Angular grids for H and He will be reduced by one unit
Partially contracted basis set               ... on
Rotationally invariant grid construction     ... off

Total number of grid points                  ...    27082
Total number of batches                      ...      428
Average number of points per batch           ...       63
Average number of grid points per atom       ...     3009
UseSFitting                                  ... on

Time for X-Grid setup             =    0.453 sec


--------------------
CPCM SOLVATION MODEL
--------------------
CPCM parameters:
  Epsilon                                         ...      69.0000
  Refrac                                          ...       1.3400
  Rsolv                                           ...       1.3000
  Surface type                                    ... GAUSSIAN VDW
  Epsilon function type                           ...         CPCM
Radii:
 Radius for C  used is    3.8550 Bohr (=   2.0400 Ang.)
 Radius for N  used is    3.5149 Bohr (=   1.8600 Ang.)
 Radius for H  used is    2.4944 Bohr (=   1.3200 Ang.)
Calculating surface                               ...        done! (  0.0s)
GEPOL surface points                              ...          557
GEPOL Volume                                      ...     596.3130
GEPOL Surface-area                                ...     369.5276
Calculating surface distance matrix               ...        done! (  0.0s)
Performing Cholesky decomposition & store         ...        done! (  0.0s)
Overall time for CPCM initialization              ...                 0.0s
--------------
SCF ITERATIONS
--------------
               ***  Starting incremental Fock matrix formation  ***
==>> SHARK/AuxDens: NDens=1 Thresh =     2.500000e-11 TCut=    2.500000e-12 Lmax=2 LmaxAux=4
    -> Making Hermite density - ok     0.002 sec
    -> Making Aux-basis density - (lmax=2)
    -> L=0 0:    0.008 sec done=     25745 (100.0%) skipped=         0 
    -> L=1 0:    0.013 sec done=     29718 ( 97.1%) skipped=       872 
    -> L=1 1:    0.007 sec done=      9690 ( 97.1%) skipped=       285 
    -> L=2 0:    0.005 sec done=     10925 (100.0%) skipped=         0 
    -> L=2 1:    0.005 sec done=      6650 (100.0%) skipped=         0 
    -> L=2 2:    0.001 sec done=      1425 (100.0%) skipped=         0 
    -> Aux basis density formed in    0.0 sec
    -> Solving linear equations - ok (   0.0 sec)
        Auxbasis Hermite Density:
        P|s>                     ...  0.000
        P|p>                     ...  0.000
        P|d>                     ...  0.000
        P|f>                     ...  0.000
        P|g>                     ...  0.000
        Building the Coulomb matrix: 
        J|ss>                          ... done (  0.0 sec) ndone=   145259 nskipped1=        0 nskipped2=     4613
        J|ps>                          ... done (  0.0 sec) ndone=   148171 nskipped1=     2451 nskipped2=     4308
        J|pp>                          ... done (  0.0 sec) ndone=    43817 nskipped1=      147 nskipped2=     1605
        J|ds>                          ... done (  0.0 sec) ndone=    37255 nskipped1=        0 nskipped2=      745
        J|dp>                          ... done (  0.0 sec) ndone=    18240 nskipped1=        0 nskipped2=        0
        J|dd>                          ... done (  0.0 sec) ndone=     2280 nskipped1=        0 nskipped2=        0
        Coulomb matrix built in   0.0 sec

        Total time for Split-RI-J                ...    0.086 sec
          (0) Prelude                            ...    0.000 sec
          (1) Hermite density                    ...    0.000 sec
          (2) Aux basis density                  ...    0.000 sec (inner=  0.0)
          (3) Linear equation solution           ...    0.000 sec
          (4) J-Matrix construction              ...    0.042 sec (inner=  0.0)
        ---------------------------------------------------------

                         ----------------------------
                         !        ITERATION     0   !
                         ----------------------------
   Total Energy        :    -225.814125692652 Eh
   Energy Change       :    -225.814125692652 Eh
   MAX-DP              :       0.088497175263
   RMS-DP              :       0.003025394889
   Actual Damping      :       0.7000
   Actual Level Shift  :       0.2500 Eh
   Int. Num. El.       :    35.99999646 (UP=   17.99999823 DN=   17.99999823)
   Exchange            :   -24.34489030
   Correlation         :    -1.45519045

==>> SHARK/AuxDens: NDens=1 Thresh =     2.500000e-11 TCut=    2.500000e-12 Lmax=2 LmaxAux=4
    -> Making Hermite density - ok     0.002 sec
    -> Making Aux-basis density - (lmax=2)
    -> L=0 0:    0.029 sec done=     25419 ( 98.7%) skipped=       326 
    -> L=1 0:    0.013 sec done=     29356 ( 96.0%) skipped=      1234 
    -> L=1 1:    0.007 sec done=      9690 ( 97.1%) skipped=       285 
    -> L=2 0:    0.005 sec done=     10925 (100.0%) skipped=         0 
    -> L=2 1:    0.006 sec done=      6650 (100.0%) skipped=         0 
    -> L=2 2:    0.001 sec done=      1425 (100.0%) skipped=         0 
    -> Aux basis density formed in    0.1 sec
    -> Solving linear equations - ok (   0.0 sec)
        Auxbasis Hermite Density:
        P|s>                     ...  0.000
        P|p>                     ...  0.000
        P|d>                     ...  0.000
        P|f>                     ...  0.000
        P|g>                     ...  0.000
        Building the Coulomb matrix: 
        J|ss>                          ... done (  0.0 sec) ndone=   145154 nskipped1=       95 nskipped2=     4613
        J|ps>                          ... done (  0.0 sec) ndone=   147904 nskipped1=     3052 nskipped2=     2866
        J|pp>                          ... done (  0.0 sec) ndone=    43626 nskipped1=      270 nskipped2=     1533
        J|ds>                          ... done (  0.0 sec) ndone=    37255 nskipped1=        0 nskipped2=      745
        J|dp>                          ... done (  0.0 sec) ndone=    18240 nskipped1=        0 nskipped2=        0
        J|dd>                          ... done (  0.0 sec) ndone=     2280 nskipped1=        0 nskipped2=        0
        Coulomb matrix built in   0.0 sec

        Total time for Split-RI-J                ...    0.100 sec
          (0) Prelude                            ...    0.000 sec
          (1) Hermite density                    ...    0.000 sec
          (2) Aux basis density                  ...    0.000 sec (inner=  0.0)
          (3) Linear equation solution           ...    0.000 sec
          (4) J-Matrix construction              ...    0.034 sec (inner=  0.0)
        ---------------------------------------------------------

                         ----------------------------
                         !        ITERATION     1   !
                         ----------------------------
   Total Energy        :    -225.869673073891 Eh
   Energy Change       :      -0.055547381239 Eh
   MAX-DP              :       0.050725949301
   RMS-DP              :       0.002050092974
   Actual Damping      :       0.7000
   Actual Level Shift  :       0.2500 Eh
   Int. Num. El.       :    35.99999518 (UP=   17.99999759 DN=   17.99999759)
   Exchange            :   -24.17412602
   Correlation         :    -1.44868511

==>> SHARK/AuxDens: NDens=1 Thresh =     2.500000e-11 TCut=    2.500000e-12 Lmax=2 LmaxAux=4
    -> Making Hermite density - ok     0.001 sec
    -> Making Aux-basis density - (lmax=2)
    -> L=0 0:    0.006 sec done=     25335 ( 98.4%) skipped=       410 
    -> L=1 0:    0.032 sec done=     29292 ( 95.8%) skipped=      1298 
    -> L=1 1:    0.006 sec done=      9690 ( 97.1%) skipped=       285 
    -> L=2 0:    0.004 sec done=     10925 (100.0%) skipped=         0 
    -> L=2 1:    0.005 sec done=      6632 ( 99.7%) skipped=        18 
    -> L=2 2:    0.001 sec done=      1425 (100.0%) skipped=         0 
    -> Aux basis density formed in    0.1 sec
    -> Solving linear equations - ok (   0.0 sec)
        Auxbasis Hermite Density:
        P|s>                     ...  0.000
        P|p>                     ...  0.000
        P|d>                     ...  0.000
        P|f>                     ...  0.000
        P|g>                     ...  0.000
        Building the Coulomb matrix: 
        J|ss>                          ... done (  0.0 sec) ndone=   144710 nskipped1=      370 nskipped2=     4512
        J|ps>                          ... done (  0.0 sec) ndone=   147802 nskipped1=     3122 nskipped2=     2854
        J|pp>                          ... done (  0.0 sec) ndone=    43623 nskipped1=      273 nskipped2=     1533
        J|ds>                          ... done (  0.0 sec) ndone=    37255 nskipped1=        0 nskipped2=      745
        J|dp>                          ... done (  0.0 sec) ndone=    18240 nskipped1=        0 nskipped2=        0
        J|dd>                          ... done (  0.0 sec) ndone=     2280 nskipped1=        0 nskipped2=        0
        Coulomb matrix built in   0.0 sec

        Total time for Split-RI-J                ...    0.094 sec
          (0) Prelude                            ...    0.000 sec
          (1) Hermite density                    ...    0.000 sec
          (2) Aux basis density                  ...    0.000 sec (inner=  0.0)
          (3) Linear equation solution           ...    0.000 sec
          (4) J-Matrix construction              ...    0.035 sec (inner=  0.0)
        ---------------------------------------------------------
                               ***Turning on DIIS***

                         ----------------------------
                         !        ITERATION     2   !
                         ----------------------------
   Total Energy        :    -225.892246472611 Eh
   Energy Change       :      -0.022573398720 Eh
   MAX-DP              :       0.074608592637
   RMS-DP              :       0.003348915109
   Actual Damping      :       0.0000
   Actual Level Shift  :       0.2500 Eh
   Int. Num. El.       :    35.99999434 (UP=   17.99999717 DN=   17.99999717)
   Exchange            :   -24.06099191
   Correlation         :    -1.44413824
   DIIS-Error          :       0.033650642930

==>> SHARK/AuxDens: NDens=1 Thresh =     2.500000e-11 TCut=    2.500000e-12 Lmax=2 LmaxAux=4
    -> Making Hermite density - ok     0.001 sec
    -> Making Aux-basis density - (lmax=2)
    -> L=0 0:    0.007 sec done=     25434 ( 98.8%) skipped=       311 
    -> L=1 0:    0.011 sec done=     29310 ( 95.8%) skipped=      1280 
    -> L=1 1:    0.005 sec done=      9690 ( 97.1%) skipped=       285 
    -> L=2 0:    0.005 sec done=     10925 (100.0%) skipped=         0 
    -> L=2 1:    0.004 sec done=      6650 (100.0%) skipped=         0 
    -> L=2 2:    0.001 sec done=      1425 (100.0%) skipped=         0 
    -> Aux basis density formed in    0.0 sec
    -> Solving linear equations - ok (   0.0 sec)
        Auxbasis Hermite Density:
        P|s>                     ...  0.000
        P|p>                     ...  0.000
        P|d>                     ...  0.000
        P|f>                     ...  0.000
        P|g>                     ...  0.000
        Building the Coulomb matrix: 
        J|ss>                          ... done (  0.0 sec) ndone=   145105 nskipped1=      110 nskipped2=     4597
        J|ps>                          ... done (  0.0 sec) ndone=   147916 nskipped1=     3033 nskipped2=     2869
        J|pp>                          ... done (  0.0 sec) ndone=    43630 nskipped1=      266 nskipped2=     1533
        J|ds>                          ... done (  0.0 sec) ndone=    37255 nskipped1=        0 nskipped2=      745
        J|dp>                          ... done (  0.0 sec) ndone=    18240 nskipped1=        0 nskipped2=        0
        J|dd>                          ... done (  0.0 sec) ndone=     2280 nskipped1=        0 nskipped2=        0
        Coulomb matrix built in   0.0 sec

        Total time for Split-RI-J                ...    0.061 sec
          (0) Prelude                            ...    0.000 sec
          (1) Hermite density                    ...    0.000 sec
          (2) Aux basis density                  ...    0.000 sec (inner=  0.0)
          (3) Linear equation solution           ...    0.000 sec
          (4) J-Matrix construction              ...    0.025 sec (inner=  0.0)
        ---------------------------------------------------------

                         ----------------------------
                         !        ITERATION     3   !
                         ----------------------------
   Total Energy        :    -225.926411191707 Eh
   Energy Change       :      -0.034164719096 Eh
   MAX-DP              :       0.036089246431
   RMS-DP              :       0.001375142356
   Actual Damping      :       0.0000
   Actual Level Shift  :       0.2500 Eh
   Int. Num. El.       :    35.99999332 (UP=   17.99999666 DN=   17.99999666)
   Exchange            :   -23.89003131
   Correlation         :    -1.43690277
   DIIS-Error          :       0.048876649155
   DIIS coefficients:
      0.56819   0.43181

==>> SHARK/AuxDens: NDens=1 Thresh =     2.500000e-11 TCut=    2.500000e-12 Lmax=2 LmaxAux=4
    -> Making Hermite density - ok     0.001 sec
    -> Making Aux-basis density - (lmax=2)
    -> L=0 0:    0.006 sec done=     25215 ( 97.9%) skipped=       530 
    -> L=1 0:    0.010 sec done=     29288 ( 95.7%) skipped=      1302 
    -> L=1 1:    0.006 sec done=      9690 ( 97.1%) skipped=       285 
    -> L=2 0:    0.004 sec done=     10925 (100.0%) skipped=         0 
    -> L=2 1:    0.004 sec done=      6579 ( 98.9%) skipped=        71 
    -> L=2 2:    0.001 sec done=      1425 (100.0%) skipped=         0 
    -> Aux basis density formed in    0.0 sec
    -> Solving linear equations - ok (   0.0 sec)
        Auxbasis Hermite Density:
        P|s>                     ...  0.000
        P|p>                     ...  0.000
        P|d>                     ...  0.000
        P|f>                     ...  0.000
        P|g>                     ...  0.000
        Building the Coulomb matrix: 
        J|ss>                          ... done (  0.0 sec) ndone=   144549 nskipped1=      557 nskipped2=     4521
        J|ps>                          ... done (  0.0 sec) ndone=   147800 nskipped1=     3122 nskipped2=     2854
        J|pp>                          ... done (  0.0 sec) ndone=    43613 nskipped1=      283 nskipped2=     1533
        J|ds>                          ... done (  0.0 sec) ndone=    37255 nskipped1=        0 nskipped2=      745
        J|dp>                          ... done (  0.0 sec) ndone=    18240 nskipped1=        0 nskipped2=        0
        J|dd>                          ... done (  0.0 sec) ndone=     2280 nskipped1=        0 nskipped2=        0
        Coulomb matrix built in   0.0 sec

        Total time for Split-RI-J                ...    0.079 sec
          (0) Prelude                            ...    0.000 sec
          (1) Hermite density                    ...    0.000 sec
          (2) Aux basis density                  ...    0.000 sec (inner=  0.0)
          (3) Linear equation solution           ...    0.000 sec
          (4) J-Matrix construction              ...    0.044 sec (inner=  0.0)
        ---------------------------------------------------------

                         ----------------------------
                         !        ITERATION     4   !
                         ----------------------------
   Total Energy        :    -225.934474590079 Eh
   Energy Change       :      -0.008063398372 Eh
   MAX-DP              :       0.009077829515
   RMS-DP              :       0.000391322653
   Actual Damping      :       0.0000
   Actual Level Shift  :       0.2500 Eh
   Int. Num. El.       :    35.99999400 (UP=   17.99999700 DN=   17.99999700)
   Exchange            :   -23.96072391
   Correlation         :    -1.43988917
   DIIS-Error          :       0.007910723095
   DIIS coefficients:
      0.21115   0.03360   0.75524

==>> SHARK/AuxDens: NDens=1 Thresh =     2.500000e-11 TCut=    2.500000e-12 Lmax=2 LmaxAux=4
    -> Making Hermite density - ok     0.001 sec
    -> Making Aux-basis density - (lmax=2)
    -> L=0 0:    0.006 sec done=     24811 ( 96.4%) skipped=       934 
    -> L=1 0:    0.011 sec done=     29260 ( 95.7%) skipped=      1330 
    -> L=1 1:    0.007 sec done=      9690 ( 97.1%) skipped=       285 
    -> L=2 0:    0.004 sec done=     10925 (100.0%) skipped=         0 
    -> L=2 1:    0.004 sec done=      6494 ( 97.7%) skipped=       156 
    -> L=2 2:    0.001 sec done=      1425 (100.0%) skipped=         0 
    -> Aux basis density formed in    0.0 sec
    -> Solving linear equations - ok (   0.0 sec)
        Auxbasis Hermite Density:
        P|s>                     ...  0.000
        P|p>                     ...  0.000
        P|d>                     ...  0.000
        P|f>                     ...  0.000
        P|g>                     ...  0.000
        Building the Coulomb matrix: 
        J|ss>                          ... done (  0.0 sec) ndone=   143968 nskipped1=     1088 nskipped2=     4531
        J|ps>                          ... done (  0.0 sec) ndone=   147624 nskipped1=     3250 nskipped2=     2854
        J|pp>                          ... done (  0.0 sec) ndone=    43611 nskipped1=      285 nskipped2=     1533
        J|ds>                          ... done (  0.0 sec) ndone=    37255 nskipped1=        0 nskipped2=      745
        J|dp>                          ... done (  0.0 sec) ndone=    18240 nskipped1=        0 nskipped2=        0
        J|dd>                          ... done (  0.0 sec) ndone=     2280 nskipped1=        0 nskipped2=        0
        Coulomb matrix built in   0.0 sec

        Total time for Split-RI-J                ...    0.060 sec
          (0) Prelude                            ...    0.000 sec
          (1) Hermite density                    ...    0.000 sec
          (2) Aux basis density                  ...    0.000 sec (inner=  0.0)
          (3) Linear equation solution           ...    0.000 sec
          (4) J-Matrix construction              ...    0.024 sec (inner=  0.0)
        ---------------------------------------------------------

                         ----------------------------
                         !        ITERATION     5   !
                         ----------------------------
   Total Energy        :    -225.934853922236 Eh
   Energy Change       :      -0.000379332157 Eh
   MAX-DP              :       0.002568702831
   RMS-DP              :       0.000120822817
   Actual Damping      :       0.0000
   Actual Level Shift  :       0.2500 Eh
   Int. Num. El.       :    35.99999410 (UP=   17.99999705 DN=   17.99999705)
   Exchange            :   -23.97410401
   Correlation         :    -1.44056698
   DIIS-Error          :       0.003462334033
   DIIS coefficients:
      0.05832  -0.02093   0.18896   0.77366

==>> SHARK/AuxDens: NDens=1 Thresh =     2.500000e-11 TCut=    2.500000e-12 Lmax=2 LmaxAux=4
    -> Making Hermite density - ok     0.022 sec
    -> Making Aux-basis density - (lmax=2)
    -> L=0 0:    0.006 sec done=     24459 ( 95.0%) skipped=      1286 
    -> L=1 0:    0.010 sec done=     29141 ( 95.3%) skipped=      1449 
    -> L=1 1:    0.005 sec done=      9690 ( 97.1%) skipped=       285 
    -> L=2 0:    0.004 sec done=     10925 (100.0%) skipped=         0 
    -> L=2 1:    0.004 sec done=      6470 ( 97.3%) skipped=       180 
    -> L=2 2:    0.001 sec done=      1425 (100.0%) skipped=         0 
    -> Aux basis density formed in    0.0 sec
    -> Solving linear equations - ok (   0.0 sec)
        Auxbasis Hermite Density:
        P|s>                     ...  0.000
        P|p>                     ...  0.000
        P|d>                     ...  0.000
        P|f>                     ...  0.000
        P|g>                     ...  0.000
        Building the Coulomb matrix: 
        J|ss>                          ... done (  0.0 sec) ndone=   140282 nskipped1=     3822 nskipped2=     3658
        J|ps>                          ... done (  0.0 sec) ndone=   147134 nskipped1=     3530 nskipped2=     2854
        J|pp>                          ... done (  0.0 sec) ndone=    43611 nskipped1=      285 nskipped2=     1533
        J|ds>                          ... done (  0.0 sec) ndone=    37255 nskipped1=        0 nskipped2=      745
        J|dp>                          ... done (  0.0 sec) ndone=    18238 nskipped1=        2 nskipped2=        0
        J|dd>                          ... done (  0.0 sec) ndone=     2280 nskipped1=        0 nskipped2=        0
        Coulomb matrix built in   0.0 sec

        Total time for Split-RI-J                ...    0.078 sec
          (0) Prelude                            ...    0.000 sec
          (1) Hermite density                    ...    0.000 sec
          (2) Aux basis density                  ...    0.000 sec (inner=  0.0)
          (3) Linear equation solution           ...    0.000 sec
          (4) J-Matrix construction              ...    0.024 sec (inner=  0.0)
        ---------------------------------------------------------
                      *** Initiating the SOSCF procedure ***
                           *** Shutting down DIIS ***
                      *** Re-Reading the Fockian *** 
                      *** Removing any level shift *** 

                         ----------------------------
                         !        ITERATION     6   !
                         ----------------------------
   Total Energy        :    -225.934889357147 Eh
   Energy Change       :      -0.000035434911 Eh
   MAX-DP              :       0.000992848887
   RMS-DP              :       0.000062680007
   Orbital gradient    :       0.000252640135
   Orbital Rotation    :       0.000252640135
   Actual Damping      :       0.0000
   Int. Num. El.       :    35.99999414 (UP=   17.99999707 DN=   17.99999707)
   Exchange            :   -23.97754250
   Correlation         :    -1.44068939

               *** Restarting incremental Fock matrix formation ***
==>> SHARK/AuxDens: NDens=1 Thresh =     2.500000e-11 TCut=    2.500000e-12 Lmax=2 LmaxAux=4
    -> Making Hermite density - ok     0.001 sec
    -> Making Aux-basis density - (lmax=2)
    -> L=0 0:    0.007 sec done=     25745 (100.0%) skipped=         0 
    -> L=1 0:    0.010 sec done=     29735 ( 97.2%) skipped=       855 
    -> L=1 1:    0.005 sec done=      9690 ( 97.1%) skipped=       285 
    -> L=2 0:    0.004 sec done=     10925 (100.0%) skipped=         0 
    -> L=2 1:    0.004 sec done=      6650 (100.0%) skipped=         0 
    -> L=2 2:    0.021 sec done=      1425 (100.0%) skipped=         0 
    -> Aux basis density formed in    0.1 sec
    -> Solving linear equations - ok (   0.0 sec)
        Auxbasis Hermite Density:
        P|s>                     ...  0.000
        P|p>                     ...  0.000
        P|d>                     ...  0.000
        P|f>                     ...  0.000
        P|g>                     ...  0.000
        Building the Coulomb matrix: 
        J|ss>                          ... done (  0.0 sec) ndone=   145259 nskipped1=        0 nskipped2=     4613
        J|ps>                          ... done (  0.0 sec) ndone=   148171 nskipped1=     2460 nskipped2=     4299
        J|pp>                          ... done (  0.0 sec) ndone=    43817 nskipped1=      145 nskipped2=     1605
        J|ds>                          ... done (  0.0 sec) ndone=    37255 nskipped1=        0 nskipped2=      745
        J|dp>                          ... done (  0.0 sec) ndone=    18240 nskipped1=        0 nskipped2=        0
        J|dd>                          ... done (  0.0 sec) ndone=     2280 nskipped1=        0 nskipped2=        0
        Coulomb matrix built in   0.0 sec

        Total time for Split-RI-J                ...    0.082 sec
          (0) Prelude                            ...    0.000 sec
          (1) Hermite density                    ...    0.000 sec
          (2) Aux basis density                  ...    0.000 sec (inner=  0.0)
          (3) Linear equation solution           ...    0.000 sec
          (4) J-Matrix construction              ...    0.027 sec (inner=  0.0)
        ---------------------------------------------------------

                         ----------------------------
                         !        ITERATION     7   !
                         ----------------------------
   Total Energy        :    -225.934945608113 Eh
   Energy Change       :      -0.000056250966 Eh
   MAX-DP              :       0.000915568688
   RMS-DP              :       0.000029153045
   Orbital gradient    :       0.000192212323
   Orbital Rotation    :       0.000417797057
   Actual Damping      :       0.0000
   Int. Num. El.       :    35.99999416 (UP=   17.99999708 DN=   17.99999708)
   Exchange            :   -23.97867501
   Correlation         :    -1.44073930

==>> SHARK/AuxDens: NDens=1 Thresh =     2.500000e-11 TCut=    2.500000e-12 Lmax=2 LmaxAux=4
    -> Making Hermite density - ok     0.002 sec
    -> Making Aux-basis density - (lmax=2)
    -> L=0 0:    0.041 sec done=     24166 ( 93.9%) skipped=      1579 
    -> L=1 0:    0.012 sec done=     28974 ( 94.7%) skipped=      1616 
    -> L=1 1:    0.007 sec done=      9607 ( 96.3%) skipped=       368 
    -> L=2 0:    0.006 sec done=     10609 ( 97.1%) skipped=       316 
    -> L=2 1:    0.005 sec done=      6097 ( 91.7%) skipped=       553 
    -> L=2 2:    0.001 sec done=      1425 (100.0%) skipped=         0 
    -> Aux basis density formed in    0.1 sec
    -> Solving linear equations - ok (   0.0 sec)
        Auxbasis Hermite Density:
        P|s>                     ...  0.000
        P|p>                     ...  0.000
        P|d>                     ...  0.000
        P|f>                     ...  0.000
        P|g>                     ...  0.000
        Building the Coulomb matrix: 
        J|ss>                          ... done (  0.0 sec) ndone=   137328 nskipped1=     6154 nskipped2=     2633
        J|ps>                          ... done (  0.0 sec) ndone=   147033 nskipped1=     3596 nskipped2=     2853
        J|pp>                          ... done (  0.0 sec) ndone=    43569 nskipped1=      336 nskipped2=     1518
        J|ds>                          ... done (  0.0 sec) ndone=    37165 nskipped1=       75 nskipped2=      745
        J|dp>                          ... done (  0.0 sec) ndone=    18202 nskipped1=       32 nskipped2=        0
        J|dd>                          ... done (  0.0 sec) ndone=     2280 nskipped1=        0 nskipped2=        0
        Coulomb matrix built in   0.1 sec

        Total time for Split-RI-J                ...    0.146 sec
          (0) Prelude                            ...    0.000 sec
          (1) Hermite density                    ...    0.000 sec
          (2) Aux basis density                  ...    0.000 sec (inner=  0.0)
          (3) Linear equation solution           ...    0.000 sec
          (4) J-Matrix construction              ...    0.071 sec (inner=  0.1)
        ---------------------------------------------------------

                         ----------------------------
                         !        ITERATION     8   !
                         ----------------------------
   Total Energy        :    -225.934945032249 Eh
   Energy Change       :       0.000000575865 Eh
   MAX-DP              :       0.000553834128
   RMS-DP              :       0.000014966160
   Orbital gradient    :       0.000290008942
   Orbital Rotation    :       0.000258955267
   Actual Damping      :       0.0000
   Int. Num. El.       :    35.99999416 (UP=   17.99999708 DN=   17.99999708)
   Exchange            :   -23.97832275
   Correlation         :    -1.44073222

==>> SHARK/AuxDens: NDens=1 Thresh =     2.500000e-11 TCut=    2.500000e-12 Lmax=2 LmaxAux=4
    -> Making Hermite density - ok     0.003 sec
    -> Making Aux-basis density - (lmax=2)
    -> L=0 0:    0.008 sec done=     24211 ( 94.0%) skipped=      1534 
    -> L=1 0:    0.012 sec done=     28619 ( 93.6%) skipped=      1971 
    -> L=1 1:    0.006 sec done=      9518 ( 95.4%) skipped=       457 
    -> L=2 0:    0.005 sec done=     10545 ( 96.5%) skipped=       380 
    -> L=2 1:    0.005 sec done=      5976 ( 89.9%) skipped=       674 
    -> L=2 2:    0.001 sec done=      1425 (100.0%) skipped=         0 
    -> Aux basis density formed in    0.0 sec
    -> Solving linear equations - ok (   0.0 sec)
        Auxbasis Hermite Density:
        P|s>                     ...  0.000
        P|p>                     ...  0.000
        P|d>                     ...  0.000
        P|f>                     ...  0.000
        P|g>                     ...  0.000
        Building the Coulomb matrix: 
        J|ss>                          ... done (  0.0 sec) ndone=   136430 nskipped1=     6929 nskipped2=     2319
        J|ps>                          ... done (  0.0 sec) ndone=   146679 nskipped1=     3958 nskipped2=     2844
        J|pp>                          ... done (  0.0 sec) ndone=    43447 nskipped1=      462 nskipped2=     1466
        J|ds>                          ... done (  0.0 sec) ndone=    36875 nskipped1=      333 nskipped2=      742
        J|dp>                          ... done (  0.0 sec) ndone=    18138 nskipped1=       80 nskipped2=        0
        J|dd>                          ... done (  0.0 sec) ndone=     2280 nskipped1=        0 nskipped2=        0
        Coulomb matrix built in   0.1 sec

        Total time for Split-RI-J                ...    0.105 sec
          (0) Prelude                            ...    0.000 sec
          (1) Hermite density                    ...    0.000 sec
          (2) Aux basis density                  ...    0.000 sec (inner=  0.0)
          (3) Linear equation solution           ...    0.000 sec
          (4) J-Matrix construction              ...    0.062 sec (inner=  0.1)
        ---------------------------------------------------------

                         ----------------------------
                         !        ITERATION     9   !
                         ----------------------------
   Total Energy        :    -225.934946082393 Eh
   Energy Change       :      -0.000001050145 Eh
   MAX-DP              :       0.000081714354
   RMS-DP              :       0.000003278018
   Orbital gradient    :       0.000022585294
   Orbital Rotation    :       0.000078402304
   Actual Damping      :       0.0000
   Int. Num. El.       :    35.99999416 (UP=   17.99999708 DN=   17.99999708)
   Exchange            :   -23.97855756
   Correlation         :    -1.44073855

==>> SHARK/AuxDens: NDens=1 Thresh =     2.500000e-11 TCut=    2.500000e-12 Lmax=2 LmaxAux=4
    -> Making Hermite density - ok     0.001 sec
    -> Making Aux-basis density - (lmax=2)
    -> L=0 0:    0.006 sec done=     24176 ( 93.9%) skipped=      1569 
    -> L=1 0:    0.079 sec done=     27940 ( 91.3%) skipped=      2650 
    -> L=1 1:    0.009 sec done=      9328 ( 93.5%) skipped=       647 
    -> L=2 0:    0.007 sec done=     10055 ( 92.0%) skipped=       870 
    -> L=2 1:    0.006 sec done=      5894 ( 88.6%) skipped=       756 
    -> L=2 2:    0.002 sec done=      1425 (100.0%) skipped=         0 
    -> Aux basis density formed in    0.1 sec
    -> Solving linear equations - ok (   0.0 sec)
        Auxbasis Hermite Density:
        P|s>                     ...  0.000
        P|p>                     ...  0.000
        P|d>                     ...  0.000
        P|f>                     ...  0.000
        P|g>                     ...  0.000
        Building the Coulomb matrix: 
        J|ss>                          ... done (  0.0 sec) ndone=   135244 nskipped1=     8096 nskipped2=     1658
        J|ps>                          ... done (  0.0 sec) ndone=   145487 nskipped1=     4933 nskipped2=     2827
        J|pp>                          ... done (  0.0 sec) ndone=    43126 nskipped1=      751 nskipped2=     1345
        J|ds>                          ... done (  0.0 sec) ndone=    35908 nskipped1=     1028 nskipped2=      716
        J|dp>                          ... done (  0.0 sec) ndone=    17936 nskipped1=      219 nskipped2=        0
        J|dd>                          ... done (  0.0 sec) ndone=     2280 nskipped1=        0 nskipped2=        0
        Coulomb matrix built in   0.0 sec

        Total time for Split-RI-J                ...    0.158 sec
          (0) Prelude                            ...    0.000 sec
          (1) Hermite density                    ...    0.000 sec
          (2) Aux basis density                  ...    0.000 sec (inner=  0.0)
          (3) Linear equation solution           ...    0.000 sec
          (4) J-Matrix construction              ...    0.045 sec (inner=  0.0)
        ---------------------------------------------------------

                         ----------------------------
                         !        ITERATION    10   !
                         ----------------------------
   Total Energy        :    -225.934946069654 Eh
   Energy Change       :       0.000000012739 Eh
   MAX-DP              :       0.000045760094
   RMS-DP              :       0.000002058272
   Orbital gradient    :       0.000039005996
   Orbital Rotation    :       0.000049220949
   Actual Damping      :       0.0000
   Int. Num. El.       :    35.99999416 (UP=   17.99999708 DN=   17.99999708)
   Exchange            :   -23.97854210
   Correlation         :    -1.44073713

==>> SHARK/AuxDens: NDens=1 Thresh =     2.500000e-11 TCut=    2.500000e-12 Lmax=2 LmaxAux=4
    -> Making Hermite density - ok     0.003 sec
    -> Making Aux-basis density - (lmax=2)
    -> L=0 0:    0.008 sec done=     24049 ( 93.4%) skipped=      1696 
    -> L=1 0:    0.012 sec done=     27509 ( 89.9%) skipped=      3081 
    -> L=1 1:    0.007 sec done=      9218 ( 92.4%) skipped=       757 
    -> L=2 0:    0.004 sec done=      9876 ( 90.4%) skipped=      1049 
    -> L=2 1:    0.005 sec done=      5890 ( 88.6%) skipped=       760 
    -> L=2 2:    0.001 sec done=      1425 (100.0%) skipped=         0 
    -> Aux basis density formed in    0.0 sec
    -> Solving linear equations - ok (   0.0 sec)
        Auxbasis Hermite Density:
        P|s>                     ...  0.000
        P|p>                     ...  0.000
        P|d>                     ...  0.000
        P|f>                     ...  0.000
        P|g>                     ...  0.000
        Building the Coulomb matrix: 
        J|ss>                          ... done (  0.0 sec) ndone=   135002 nskipped1=     8370 nskipped2=     1626
        J|ps>                          ... done (  0.0 sec) ndone=   144571 nskipped1=     5571 nskipped2=     2801
        J|pp>                          ... done (  0.0 sec) ndone=    42886 nskipped1=      950 nskipped2=     1266
        J|ds>                          ... done (  0.0 sec) ndone=    35099 nskipped1=     1539 nskipped2=      667
        J|dp>                          ... done (  0.0 sec) ndone=    17798 nskipped1=      301 nskipped2=        0
        J|dd>                          ... done (  0.0 sec) ndone=     2280 nskipped1=        0 nskipped2=        0
        Coulomb matrix built in   0.1 sec

        Total time for Split-RI-J                ...    0.105 sec
          (0) Prelude                            ...    0.000 sec
          (1) Hermite density                    ...    0.000 sec
          (2) Aux basis density                  ...    0.000 sec (inner=  0.0)
          (3) Linear equation solution           ...    0.000 sec
          (4) J-Matrix construction              ...    0.063 sec (inner=  0.1)
        ---------------------------------------------------------
                  ***Gradient check signals convergence***
              ***Rediagonalizing the Fockian in SOSCF/NRSCF***

               *****************************************************
               *                     SUCCESS                       *
               *           SCF CONVERGED AFTER  11 CYCLES          *
               *****************************************************

Old exchange energy                            =     -6.031098830 Eh
New exchange energy                            =     -6.031084440 Eh
Exchange energy change after final integration =      0.000014390 Eh
Total energy after final integration           =   -225.934931698 Eh
Final COS-X integration done in                =     3.858 sec

----------------
TOTAL SCF ENERGY
----------------

Total Energy       :         -225.93493170 Eh           -6148.00205 eV

Components:
Nuclear Repulsion  :          163.44368930 Eh            4447.52889 eV
Electronic Energy  :         -389.37862100 Eh          -10595.53094 eV
One Electron Energy:         -628.37403219 Eh          -17098.92671 eV
Two Electron Energy:          238.99541119 Eh            6503.39576 eV
Max COSX asymmetry :            0.00000163 Eh               0.00004 eV
CPCM Dielectric    :           -0.01677898 Eh              -0.45658 eV

Virial components:
Potential Energy   :         -449.72977654 Eh          -12237.76938 eV
Kinetic Energy     :          223.79484485 Eh            6089.76733 eV
Virial Ratio       :            2.00956272


DFT components:
N(Alpha)           :       17.999997079301 electrons
N(Beta)            :       17.999997079301 electrons
N(Total)           :       35.999994158603 electrons
E(X)               :      -23.978538110741 Eh       
E(C)               :       -1.440737412858 Eh       
E(XC)              :      -25.419275523599 Eh       
DFET-embed. en.    :        0.000000000000 Eh       
CPCM Solvation Model Properties:
Surface-charge          :           -0.01306015
Charge-correction       :           -0.00001711 Eh              -0.00047 eV
Free-energy (cav+disp)  :  This term is not implemented in the current solvation scheme

---------------
SCF CONVERGENCE
---------------

  Last Energy change         ...   -1.7855e-08  Tolerance :   1.0000e-08
  Last MAX-Density change    ...    2.2204e-15  Tolerance :   1.0000e-07
  Last RMS-Density change    ...    6.0508e-17  Tolerance :   5.0000e-09
  Last Orbital Gradient      ...    1.9888e-06  Tolerance :   1.0000e-05
  Last Orbital Rotation      ...    4.7011e-06  Tolerance :   1.0000e-05

             **** THE GBW FILE WAS UPDATED (Imidazole_DFT.gbw) ****
             **** DENSITY Imidazole_DFT.scfp WAS UPDATED ****
             **** ENERGY FILE WAS UPDATED (Imidazole_DFT.en.tmp) ****
             **** THE GBW FILE WAS UPDATED (Imidazole_DFT.gbw) ****
             **** DENSITY Imidazole_DFT.scfp WAS UPDATED ****
----------------
ORBITAL ENERGIES
----------------

  NO   OCC          E(Eh)            E(eV) 
   0   2.0000     -14.375884      -391.1877 
   1   2.0000     -14.303176      -389.2092 
   2   2.0000     -10.231228      -278.4059 
   3   2.0000     -10.207165      -277.7511 
   4   2.0000     -10.191195      -277.3165 
   5   2.0000      -1.003944       -27.3187 
   6   2.0000      -0.858030       -23.3482 
   7   2.0000      -0.730490       -19.8776 
   8   2.0000      -0.603242       -16.4150 
   9   2.0000      -0.582240       -15.8435 
  10   2.0000      -0.552780       -15.0419 
  11   2.0000      -0.437514       -11.9054 
  12   2.0000      -0.431156       -11.7323 
  13   2.0000      -0.429645       -11.6912 
  14   2.0000      -0.403639       -10.9836 
  15   2.0000      -0.286160        -7.7868 
  16   2.0000      -0.275120        -7.4864 
  17   2.0000      -0.230804        -6.2805 
  18   0.0000       0.028862         0.7854 
  19   0.0000       0.064507         1.7553 
  20   0.0000       0.078118         2.1257 
  21   0.0000       0.120618         3.2822 
  22   0.0000       0.126274         3.4361 
  23   0.0000       0.135684         3.6921 
  24   0.0000       0.210090         5.7168 
  25   0.0000       0.235477         6.4077 
  26   0.0000       0.253349         6.8940 
  27   0.0000       0.318356         8.6629 
  28   0.0000       0.358935         9.7671 
  29   0.0000       0.395837        10.7713 
  30   0.0000       0.413689        11.2570 
  31   0.0000       0.475739        12.9455 
  32   0.0000       0.492659        13.4059 
  33   0.0000       0.526913        14.3380 
  34   0.0000       0.533180        14.5086 
  35   0.0000       0.553367        15.0579 
  36   0.0000       0.568555        15.4712 
  37   0.0000       0.621848        16.9213 
  38   0.0000       0.642679        17.4882 
  39   0.0000       0.694466        18.8974 
  40   0.0000       0.701403        19.0861 
  41   0.0000       0.738726        20.1018 
  42   0.0000       0.774456        21.0740 
  43   0.0000       0.798871        21.7384 
  44   0.0000       0.816030        22.2053 
  45   0.0000       0.841262        22.8919 
  46   0.0000       0.863129        23.4869 
  47   0.0000       0.960965        26.1492 
  48   0.0000       1.022038        27.8111 
  49   0.0000       1.100499        29.9461 
  50   0.0000       1.179791        32.1037 
  51   0.0000       1.189894        32.3787 
  52   0.0000       1.198442        32.6113 
  53   0.0000       1.292706        35.1763 
  54   0.0000       1.341235        36.4969 
  55   0.0000       1.347736        36.6738 
  56   0.0000       1.381713        37.5983 
  57   0.0000       1.530411        41.6446 
  58   0.0000       1.620526        44.0968 
  59   0.0000       1.659847        45.1667 
  60   0.0000       1.692352        46.0512 
  61   0.0000       1.752868        47.6980 
  62   0.0000       1.766667        48.0734 
  63   0.0000       1.826062        49.6897 
  64   0.0000       1.907294        51.9001 
  65   0.0000       1.912137        52.0319 
  66   0.0000       1.928758        52.4842 
  67   0.0000       1.983586        53.9761 
  68   0.0000       1.989381        54.1338 
  69   0.0000       2.048638        55.7463 
  70   0.0000       2.083496        56.6948 
  71   0.0000       2.163073        58.8602 
  72   0.0000       2.233808        60.7850 
  73   0.0000       2.375322        64.6358 
  74   0.0000       2.392101        65.0924 
  75   0.0000       2.469347        67.1944 
  76   0.0000       2.493072        67.8399 
  77   0.0000       2.501472        68.0685 
  78   0.0000       2.674221        72.7693 
  79   0.0000       2.735987        74.4500 
  80   0.0000       2.749156        74.8083 
  81   0.0000       2.788055        75.8668 
  82   0.0000       2.817459        76.6670 
  83   0.0000       2.877166        78.2917 
  84   0.0000       2.899174        78.8905 
  85   0.0000       2.981139        81.1209 
  86   0.0000       3.111241        84.6612 
  87   0.0000       3.357349        91.3581 
  88   0.0000       3.403511        92.6142 
  89   0.0000       3.632610        98.8483 

                    ********************************
                    * MULLIKEN POPULATION ANALYSIS *
                    ********************************

-----------------------
MULLIKEN ATOMIC CHARGES
-----------------------
   0 C :    0.021956
   1 C :   -0.032111
   2 N :   -0.232194
   3 C :    0.071216
   4 N :   -0.061397
   5 H :    0.027373
   6 H :    0.002739
   7 H :    0.031723
   8 H :    0.170694
Sum of atomic charges:   -0.0000000

--------------------------------
MULLIKEN REDUCED ORBITAL CHARGES
--------------------------------
  0 C s       :     3.162571  s :     3.162571
      pz      :     1.081469  p :     2.766878
      px      :     0.821436
      py      :     0.863973
      dz2     :     0.004020  d :     0.048595
      dxz     :     0.004512
      dyz     :     0.009964
      dx2y2   :     0.012820
      dxy     :     0.017280
  1 C s       :     3.170994  s :     3.170994
      pz      :     1.082401  p :     2.809999
      px      :     0.865821
      py      :     0.861777
      dz2     :     0.003734  d :     0.051117
      dxz     :     0.009292
      dyz     :     0.003998
      dx2y2   :     0.015800
      dxy     :     0.018293
  2 N s       :     3.505210  s :     3.505210
      pz      :     1.202075  p :     3.696736
      px      :     1.336895
      py      :     1.157766
      dz2     :     0.003264  d :     0.030248
      dxz     :     0.004463
      dyz     :     0.005697
      dx2y2   :     0.011731
      dxy     :     0.005093
  3 C s       :     3.117198  s :     3.117198
      pz      :     1.030542  p :     2.741040
      px      :     0.807156
      py      :     0.903341
      dz2     :     0.004767  d :     0.070546
      dxz     :     0.007802
      dyz     :     0.011505
      dx2y2   :     0.019618
      dxy     :     0.026854
  4 N s       :     3.353826  s :     3.353826
      pz      :     1.512467  p :     3.682304
      px      :     1.110667
      py      :     1.059170
      dz2     :     0.002102  d :     0.025267
      dxz     :     0.005855
      dyz     :     0.002426
      dx2y2   :     0.007954
      dxy     :     0.006929
  5 H s       :     0.948965  s :     0.948965
[...]
                  --------  --------  --------  --------  --------  --------
 0 C  s               0.2       1.6       0.0       1.7       0.0       0.0
 0 C  pz              0.0       0.0       0.1       0.0       0.0       0.3
 0 C  px              0.2       1.9       0.0       1.0       0.7       0.0
 0 C  py              3.9       0.5       0.0       0.4       0.0       0.0
 0 C  dz2             0.0       6.2       0.0       4.3       1.3       0.0
 0 C  dxz             0.0       0.0      15.3       0.0       0.0       2.3
 0 C  dyz             0.0       0.0      18.0       0.0       0.0       7.0
 0 C  dx2y2           0.3       7.4       0.0       2.0       0.0       0.0
 0 C  dxy             9.0       3.8       0.0       0.0       8.1       0.0
 1 C  s               2.4       0.4       0.0       1.1       0.2       0.0
 1 C  pz              0.0       0.0       0.1       0.0       0.0       0.3
 1 C  px              0.2       2.1       0.0       0.4       0.4       0.0
 1 C  py              1.0       0.4       0.0       0.1       6.1       0.0
 1 C  dz2            15.7       4.5       0.0       3.0       1.1       0.0
 1 C  dxz             0.0       0.0       9.7       0.0       0.0       7.0
 1 C  dyz             0.0       0.0      25.1       0.0       0.0       1.4
 1 C  dx2y2           0.1       9.0       0.0       0.4       0.2       0.0
 1 C  dxy            12.9       5.5       0.0       2.1       0.0       0.0
 2 N  s               0.3       1.1       0.0       3.8       0.9       0.0
 2 N  pz              0.0       0.0       0.5       0.0       0.0       0.1
 2 N  px              0.2       1.8       0.0       0.2       1.9       0.0
 2 N  py              1.0       1.0       0.0       5.7       0.2       0.0
 2 N  dz2             1.6       0.5       0.0       6.0      14.8       0.0
 2 N  dxz             0.0       0.0       2.0       0.0       0.0      18.1
 2 N  dyz             0.0       0.0       4.0       0.0       0.0      12.6
 2 N  dx2y2           0.0       2.5       0.0       4.3       3.9       0.0
 2 N  dxy             0.8       4.0       0.0       0.1      12.1       0.0
 3 C  s               2.6       0.5       0.0       0.1       0.3       0.0
 3 C  pz              0.0       0.0       0.0       0.0       0.0       0.6
 3 C  px              0.5       1.9       0.0       0.8       4.6       0.0
 3 C  py              0.3       0.3       0.0       1.6       1.3       0.0
 3 C  dz2             8.5       0.2       0.0       0.7       0.1       0.0
 3 C  dxz             0.0       0.0       2.1       0.0       0.0       5.1
 3 C  dyz             0.0       0.0       5.2       0.0       0.0       0.3
 3 C  dx2y2           0.5       1.9       0.0      28.6       1.2       0.0
 3 C  dxy             6.1       0.1       0.0       0.9       0.1       0.0
 4 N  s               2.6       1.3       0.0       1.6       0.5       0.0
 4 N  pz              0.0       0.0       0.1       0.0       0.0       0.0
 4 N  px              2.2       1.6       0.0       5.0       0.7       0.0
 4 N  py              1.7       3.7       0.0       1.2       1.1       0.0
 4 N  dz2             4.7       7.2       0.0       1.0       0.1       0.0
 4 N  dxz             0.0       0.0       1.9       0.0       0.0      39.3
 4 N  dyz             0.0       0.0       7.0       0.0       0.0       5.2
 4 N  dx2y2           0.0       0.0       0.0       3.2       2.9       0.0
 4 N  dxy             1.1       0.0       0.0       3.2       1.8       0.0
 5 H  s               0.0       0.4       0.0       0.0       0.1       0.0
 5 H  pz              0.0       0.0       4.1       0.0       0.0       0.0
 5 H  px              0.0       4.9       0.0       0.1       0.7       0.0
 5 H  py             11.6       0.0       0.0       0.1       2.6       0.0
 6 H  s               0.1       0.0       0.0       0.0       2.2       0.0
 6 H  pz              0.0       0.0       3.8       0.0       0.0       0.2
 6 H  px              1.0       8.3       0.0       0.4       0.6       0.0
 6 H  py              1.8       1.2       0.0       0.3      11.9       0.0
 7 H  s               0.1       0.2       0.0       0.0       1.9       0.0
 7 H  pz              0.0       0.0       0.0       0.0       0.0       0.2
 7 H  px              1.4       2.1       0.0       7.2       4.4       0.0
 7 H  py              1.4       0.6       0.0       7.1       8.5       0.0
 8 H  s               0.0       1.2       0.0       0.1       0.0       0.0
 8 H  pz              0.0       0.0       1.1       0.0       0.0       0.0
 8 H  px              1.8       0.0       0.0       0.2       0.1       0.0
 8 H  py              0.0       7.9       0.0       0.2       0.1       0.0

                     78        79        80        81        82        83   
                   2.66315   2.72135   2.74232   2.78009   2.80277   2.86749
                   0.00000   0.00000   0.00000   0.00000   0.00000   0.00000
                  --------  --------  --------  --------  --------  --------
 0 C  s               0.0       3.3       0.0       0.0       0.2       6.6
 0 C  pz              0.1       0.0       0.1       0.0       0.0       0.0
 0 C  px              0.0       7.1       0.0       0.0       0.5       0.3
 0 C  py              0.0       0.6       0.0       0.0       0.9       0.1
 0 C  dz2             0.0       2.6       0.0       0.0       0.4       8.2
 0 C  dxz            10.9       0.0       7.9       0.4       0.0       0.0
 0 C  dyz             0.2       0.0       0.0       7.4       0.0       0.0
 0 C  dx2y2           0.0       9.1       0.0       0.0       2.7       1.1
 0 C  dxy             0.0       3.0       0.0       0.0       2.9       4.6
 1 C  s               0.0       2.6       0.0       0.0       1.0       0.2
 1 C  pz              0.3       0.0       0.0       0.0       0.0       0.0
 1 C  px              0.0       0.7       0.0       0.0       0.3       0.8
 1 C  py              0.0       0.7       0.0       0.0       3.3       1.9
 1 C  dz2             0.0       1.3       0.0       0.0       2.4       0.1
 1 C  dxz             6.0       0.0       2.0       8.1       0.0       0.0
 1 C  dyz            14.3       0.0       0.5       0.2       0.0       0.0
 1 C  dx2y2           0.0       5.9       0.0       0.0       1.0       0.0
 1 C  dxy             0.0       0.9       0.0       0.0       3.3      13.3
 2 N  s               0.0       0.7       0.0       0.0       0.2       0.7
 2 N  pz              1.3       0.0       0.2       0.1       0.0       0.0
 2 N  px              0.0       0.3       0.0       0.0       0.0       0.1
 2 N  py              0.0       0.2       0.0       0.0       0.5       0.5
 2 N  dz2             0.0       0.0       0.0       0.0       0.5       0.9
 2 N  dxz            31.2       0.0       6.9       6.9       0.0       0.0
 2 N  dyz            14.1       0.0       1.4      35.6       0.0       0.0
 2 N  dx2y2           0.0       0.5       0.0       0.0       0.8       0.0
 2 N  dxy             0.0       0.4       0.0       0.0       0.4       0.0
 3 C  s               0.0       0.6       0.0       0.0       4.0       0.4
 3 C  pz              0.2       0.0       0.3       0.1       0.0       0.0
 3 C  px              0.0       0.1       0.0       0.0       0.7       0.7
 3 C  py              0.0       0.5       0.0       0.0       3.9       0.1
 3 C  dz2             0.0       0.0       0.0       0.0       6.7       1.2
 3 C  dxz             0.8       0.0      14.4       2.5       0.0       0.0
 3 C  dyz             7.3       0.0       1.6      17.4       0.0       0.0
 3 C  dx2y2           0.0       2.9       0.0       0.0       2.4       3.8
 3 C  dxy             0.0       0.1       0.0       0.0       2.8       3.7
 4 N  s               0.0       0.4       0.0       0.0       1.1       4.9
 4 N  px              0.0       0.9       0.0       0.0       0.0       0.1
 4 N  py              0.0       3.9       0.0       0.0       2.5       0.5
 4 N  dz2             0.0       0.1       0.0       0.0       8.7      26.2
 4 N  dxz             0.8       0.0      10.4      16.5       0.0       0.0
 4 N  dyz             7.3       0.0      44.6       4.4       0.0       0.0
 4 N  dx2y2           0.0       1.8       0.0       0.0       7.2       1.3
 4 N  dxy             0.0       0.1       0.0       0.0       2.1       6.1
 5 H  s               0.0       6.8       0.0       0.0       0.2       0.6
 5 H  pz              1.6       0.0       1.1       0.0       0.0       0.0
 5 H  px              0.0      20.8       0.0       0.0       0.5       2.3
 5 H  py              0.0       1.6       0.0       0.0       0.0       1.2
 6 H  s               0.0       2.1       0.0       0.0       3.3       0.6
 6 H  pz              2.4       0.0       0.0       0.0       0.0       0.0
 6 H  px              0.0       1.7       0.0       0.0       0.1       0.7
 6 H  py              0.0       5.8       0.0       0.0       9.8       1.6
 7 H  s               0.0       0.2       0.0       0.0       5.3       0.2
 7 H  pz              0.6       0.0       1.8       0.2       0.0       0.0
 7 H  px              0.0       0.1       0.0       0.0       9.2       0.0
 7 H  py              0.0       0.5       0.0       0.0       5.8       0.9
 8 H  s               0.0       2.8       0.0       0.0       0.9       1.1
 8 H  pz              0.7       0.0       6.7       0.1       0.0       0.0
 8 H  px              0.0       0.4       0.0       0.0       0.5       0.6
 8 H  py              0.0       5.8       0.0       0.0       1.1       1.9

                     84        85        86        87        88        89   
                   2.88949   2.96598   3.10341   3.34621   3.38811   3.61337
                   0.00000   0.00000   0.00000   0.00000   0.00000   0.00000
                  --------  --------  --------  --------  --------  --------
 0 C  s               0.5       1.6       0.4       0.1       0.3       0.7
 0 C  px              0.1       0.0       1.1       0.0       0.5       0.6
 0 C  py              0.0       1.1       0.5       1.6       0.1       0.1
 0 C  dz2             1.0       0.7       0.0       0.3       0.6       1.2
 0 C  dx2y2           0.5       1.3       0.0       0.9       7.2      14.2
 0 C  dxy             0.1      11.8       6.6       8.0       0.9       0.2
 1 C  s               4.6       2.8       2.0       0.4       0.6       0.2
 1 C  px              1.2       0.3       0.6       1.6       0.7       0.0
 1 C  py              0.1       0.0       0.5       0.2       0.6       0.2
 1 C  dz2             5.7       3.6       0.7       0.3       0.4       0.5
 1 C  dx2y2           2.7       4.7       0.5       0.3      17.6       5.8
 1 C  dxy             0.3       5.9       2.4       8.0       3.7       0.1
 2 N  s               6.6       0.2       0.0       0.2       0.1       0.0
 2 N  px              1.7       0.3       1.0       0.6       0.0       0.2
 2 N  py              0.4       0.3       1.6       1.7       0.5       0.2
 2 N  dz2            47.3       0.2       0.3       0.0       0.1       0.1
 2 N  dx2y2           0.0       0.0      32.7      26.5       0.0       0.3
 2 N  dxy             4.6       9.6       0.8       0.4      27.8       0.3
 3 C  s               4.1       0.0       5.9       0.2       1.0       0.2
 3 C  px              1.2       0.9       1.0       1.0       0.2       0.2
 3 C  py              0.6       0.0       1.1       2.5       0.1       0.1
 3 C  dz2             4.7       0.3       2.4       0.1       0.4       0.4
 3 C  dx2y2           1.3       4.6       0.1      13.1       0.0       2.1
 3 C  dxy             0.4       8.2       0.5       0.2      15.4       6.9
 4 N  s               0.5       5.0       0.0       0.0       0.3       1.5
 4 N  px              0.1       0.1       0.9       1.0       0.8       0.1
 4 N  py              0.3       0.3       0.3       0.0       0.1       1.9
 4 N  dz2             1.3      12.3       0.3       0.1       0.4       3.6
 4 N  dx2y2           0.0       0.4      12.2       8.7       1.4      23.2
 4 N  dxy             0.1       2.3      20.7      17.0       0.7      11.5
 5 H  s               0.1       1.0       0.1       0.1       1.9       2.9
 5 H  px              0.2       2.1       0.3       0.1       2.0       2.4
 5 H  py              0.0       1.2       0.5       0.8       0.0       0.1
 6 H  s               0.4       0.9       0.0       0.2       3.5       1.1
 6 H  px              0.0       3.0       0.2       0.4       0.2       0.4
 6 H  py              1.3       1.0       0.0       0.5       3.5       0.7
 7 H  s               1.6       0.6       0.0       0.0       2.3       1.5
 7 H  px              2.6       2.0       0.0       0.3       2.4       0.4
 7 H  py              1.3       0.0       0.1       0.6       0.4       1.0
 8 H  s               0.1       3.3       0.0       0.1       0.5       7.5
 8 H  px              0.0       0.4       1.4       2.0       0.1       0.5
 8 H  py              0.3       5.9       0.3       0.0       0.7       5.1



                      *****************************
                      * MAYER POPULATION ANALYSIS *
                      *****************************

  NA   - Mulliken gross atomic population
  ZA   - Total nuclear charge
  QA   - Mulliken gross atomic charge
  VA   - Mayer's total valence
  BVA  - Mayer's bonded valence
  FA   - Mayer's free valence

  ATOM       NA         ZA         QA         VA         BVA        FA
  0 C      5.9835     6.0000     0.0165     3.8203     3.8203     0.0000
  1 C      6.0327     6.0000    -0.0327     3.9331     3.9331    -0.0000
  2 N      7.2426     7.0000    -0.2426     3.0642     3.0642     0.0000
  3 C      5.9305     6.0000     0.0695     3.9882     3.9882     0.0000
  4 N      7.0646     7.0000    -0.0646     3.4874     3.4874     0.0000
  5 H      0.9682     1.0000     0.0318     0.9928     0.9928     0.0000
  6 H      0.9903     1.0000     0.0097     0.9940     0.9940    -0.0000
  7 H      0.9622     1.0000     0.0378     0.9965     0.9965     0.0000
  8 H      0.8254     1.0000     0.1746     0.9757     0.9757    -0.0000

  Mayer bond orders larger than 0.100000
B(  0-C ,  1-C ) :   1.5133 B(  0-C ,  4-N ) :   1.2183 B(  0-C ,  5-H ) :   0.9909 
B(  1-C ,  2-N ) :   1.3742 B(  1-C ,  6-H ) :   0.9941 B(  2-N ,  3-C ) :   1.6090 
B(  3-C ,  4-N ) :   1.2678 B(  3-C ,  7-H ) :   0.9786 B(  4-N ,  8-H ) :   0.9248 


-------
TIMINGS
-------

Total SCF time: 0 days 0 hours 0 min 57 sec 

Total time                  ....      57.791 sec
Sum of individual times     ....      57.165 sec  ( 98.9%)

Fock matrix formation       ....      54.163 sec  ( 93.7%)
  Split-RI-J                ....       2.472 sec  (  4.6% of F)
  Chain of spheres X        ....      38.733 sec  ( 71.5% of F)
  XC integration            ....       9.364 sec  ( 17.3% of F)
    Basis function eval.    ....       3.984 sec  ( 42.5% of XC)
    Density eval.           ....       2.132 sec  ( 22.8% of XC)
    XC-Functional eval.     ....       0.753 sec  (  8.0% of XC)
    XC-Potential eval.      ....       1.919 sec  ( 20.5% of XC)
Diagonalization             ....       0.002 sec  (  0.0%)
Density matrix formation    ....       0.001 sec  (  0.0%)
Population analysis         ....       0.104 sec  (  0.2%)
Initial guess               ....       0.004 sec  (  0.0%)
Orbital Transformation      ....       0.000 sec  (  0.0%)
Orbital Orthonormalization  ....       0.001 sec  (  0.0%)
DIIS solution               ....       0.000 sec  (  0.0%)
SOSCF solution              ....       0.006 sec  (  0.0%)
Grid generation             ....       2.885 sec  (  5.0%)

Maximum memory used throughout the entire SCF-calculation: 53.2 MB

-------------------------   --------------------
FINAL SINGLE POINT ENERGY      -225.935327031494
-------------------------   --------------------

                                *** OPTIMIZATION RUN DONE ***

                            ***************************************
                            *     ORCA property calculations      *
                            ***************************************

                                    ---------------------
                                    Active property flags
                                    ---------------------
   (+) Dipole Moment


------------------------------------------------------------------------------
                       ORCA ELECTRIC PROPERTIES CALCULATION
------------------------------------------------------------------------------

Dipole Moment Calculation                       ... on
Quadrupole Moment Calculation                   ... off
Polarizability Calculation                      ... off
GBWName                                         ... Imidazole_DFT.gbw
Electron density                                ... Imidazole_DFT.scfp
SHARK General Contraction Test:  Segmented basis detected
   -> Pre-screening matrix found on disk - Trying to read with NShells=42
   -> Passing Pre-screening matrix on to SHARK ...ok
   -> Leaving CheckPreScreeningMatrix
----------------------
SHARK INTEGRAL PACKAGE
----------------------

Number of atoms                             ...      9
Number of basis functions                   ...     90
Number of shells                            ...     42
Maximum angular momentum                    ...      2
Integral batch strategy                     ... SHARK/LIBINT Hybrid
RI-J (if used) integral strategy            ... SPLIT-RIJ (Revised 2003 algorithm where possible)
Printlevel                                  ...      2
Contraction scheme used                     ... SEGMENTED contraction
Coulomb Range Separation                    ... NOT USED
Exchange Range Separation                   ... NOT USED
Finite Nucleus Model                        ... NOT USED
Auxiliary Coulomb fitting basis             ... AVAILABLE
   # of basis functions in Aux-J            ...    289
   # of shells in Aux-J                     ...     95
   Maximum angular momentum in Aux-J        ...      4
Auxiliary J/K fitting basis                 ... NOT available
Auxiliary Correlation fitting basis         ... NOT available
Auxiliary 'external' fitting basis          ... NOT available
Integral threshold                          ...     2.500000e-11
Primitive cut-off                           ...     2.500000e-12
Primitive pair pre-selection threshold      ...     2.500000e-12

The origin for moment calculation is the CENTER OF MASS  = (-0.014124, -0.039943  0.000314)

-------------
DIPOLE MOMENT
-------------
                                X             Y             Z
Electronic contribution:      0.52748      -0.48202       0.00016
Nuclear contribution   :     -1.62099      -1.15231       0.00015
                        -----------------------------------------
Total Dipole Moment    :     -1.09351      -1.63433       0.00031
                        -----------------------------------------
Magnitude (a.u.)       :      1.96642
Magnitude (Debye)      :      4.99825



--------------------
Rotational spectrum 
--------------------
 
Rotational constants in cm-1:     0.323984     0.312278     0.159012 
Rotational constants in MHz :  9712.783827  9361.870116  4767.049558 

 Dipole components along the rotational axes: 
x,y,z [a.u.] :    -1.956014    -0.202043    -0.000003 
x,y,z [Debye]:    -4.971793    -0.513551    -0.000007 

 

Timings for individual modules:

Sum of individual times         ...      310.899 sec (=   5.182 min)
GTO integral calculation        ...        2.109 sec (=   0.035 min)   0.7 %
SCF iterations                  ...      241.456 sec (=   4.024 min)  77.7 %
SCF Gradient evaluation         ...       66.923 sec (=   1.115 min)  21.5 %
Geometry relaxation             ...        0.411 sec (=   0.007 min)   0.1 %
                             ****ORCA TERMINATED NORMALLY****
TOTAL RUN TIME: 0 days 0 hours 5 minutes 12 seconds 919 msec
