
                                 *****************
                                 * O   R   C   A *
                                 *****************

                                            #,                                       
                                            ###                                      
                                            ####                                     
                                            #####                                    
                                            ######                                   
                                           ########,                                 
                                     ,,################,,,,,                         
                               ,,#################################,,                 
                          ,,##########################################,,             
                       ,#########################################, ''#####,          
                    ,#############################################,,   '####,        
                  ,##################################################,,,,####,       
                ,###########''''           ''''###############################       
              ,#####''   ,,,,##########,,,,          '''####'''          '####       
            ,##' ,,,,###########################,,,                        '##       
           ' ,,###''''                  '''############,,,                           
         ,,##''                                '''############,,,,        ,,,,,,###''
      ,#''                                            '''#######################'''  
     '                                                          ''''####''''         
             ,#######,   #######,   ,#######,      ##                                
            ,#'     '#,  ##    ##  ,#'     '#,    #''#        ######   ,####,        
            ##       ##  ##   ,#'  ##            #'  '#       #        #'  '#        
            ##       ##  #######   ##           ,######,      #####,   #    #        
            '#,     ,#'  ##    ##  '#,     ,#' ,#      #,         ##   #,  ,#        
             '#######'   ##     ##  '#######'  #'      '#     #####' # '####'        



                  #######################################################
                  #                        -***-                        #
                  #          Department of theory and spectroscopy      #
                  #    Directorship and core code : Frank Neese         #
                  #        Max Planck Institute fuer Kohlenforschung    #
                  #                Kaiser Wilhelm Platz 1               #
                  #                 D-45470 Muelheim/Ruhr               #
                  #                      Germany                        #
                  #                                                     #
                  #                  All rights reserved                #
                  #                        -***-                        #
                  #######################################################


                         Program Version 5.0.4 -  RELEASE  -


 With contributions from (in alphabetic order):
   Daniel Aravena         : Magnetic Suceptibility
   Michael Atanasov       : Ab Initio Ligand Field Theory (pilot matlab implementation)
   Alexander A. Auer      : GIAO ZORA, VPT2 properties, NMR spectrum
   Ute Becker             : Parallelization
   Giovanni Bistoni       : ED, misc. LED, open-shell LED, HFLD
   Martin Brehm           : Molecular dynamics
   Dmytro Bykov           : SCF Hessian
   Vijay G. Chilkuri      : MRCI spin determinant printing, contributions to CSF-ICE
   Dipayan Datta          : RHF DLPNO-CCSD density
   Achintya Kumar Dutta   : EOM-CC, STEOM-CC
   Dmitry Ganyushin       : Spin-Orbit,Spin-Spin,Magnetic field MRCI
   Miquel Garcia          : C-PCM and meta-GGA Hessian, CC/C-PCM, Gaussian charge scheme
   Yang Guo               : DLPNO-NEVPT2, F12-NEVPT2, CIM, IAO-localization
   Andreas Hansen         : Spin unrestricted coupled pair/coupled cluster methods
   Benjamin Helmich-Paris : MC-RPA, TRAH-SCF, COSX integrals
   Lee Huntington         : MR-EOM, pCC
   Robert Izsak           : Overlap fitted RIJCOSX, COSX-SCS-MP3, EOM
   Marcus Kettner         : VPT2
   Christian Kollmar      : KDIIS, OOCD, Brueckner-CCSD(T), CCSD density, CASPT2, CASPT2-K
   Simone Kossmann        : Meta GGA functionals, TD-DFT gradient, OOMP2, MP2 Hessian
   Martin Krupicka        : Initial AUTO-CI
   Lucas Lang             : DCDCAS
   Marvin Lechner         : AUTO-CI (C++ implementation), FIC-MRCC
   Dagmar Lenk            : GEPOL surface, SMD
   Dimitrios Liakos       : Extrapolation schemes; Compound Job, initial MDCI parallelization
   Dimitrios Manganas     : Further ROCIS development; embedding schemes
   Dimitrios Pantazis     : SARC Basis sets
   Anastasios Papadopoulos: AUTO-CI, single reference methods and gradients
   Taras Petrenko         : DFT Hessian,TD-DFT gradient, ASA, ECA, R-Raman, ABS, FL, XAS/XES, NRVS
   Peter Pinski           : DLPNO-MP2, DLPNO-MP2 Gradient
   Christoph Reimann      : Effective Core Potentials
   Marius Retegan         : Local ZFS, SOC
   Christoph Riplinger    : Optimizer, TS searches, QM/MM, DLPNO-CCSD(T), (RO)-DLPNO pert. Triples
   Tobias Risthaus        : Range-separated hybrids, TD-DFT gradient, RPA, STAB
   Michael Roemelt        : Original ROCIS implementation
   Masaaki Saitow         : Open-shell DLPNO-CCSD energy and density
   Barbara Sandhoefer     : DKH picture change effects
   Avijit Sen             : IP-ROCIS
   Kantharuban Sivalingam : CASSCF convergence, NEVPT2, FIC-MRCI
   Bernardo de Souza      : ESD, SOC TD-DFT
   Georgi Stoychev        : AutoAux, RI-MP2 NMR, DLPNO-MP2 response
   Willem Van den Heuvel  : Paramagnetic NMR
   Boris Wezisla          : Elementary symmetry handling
   Frank Wennmohs         : Technical directorship


 We gratefully acknowledge several colleagues who have allowed us to
 interface, adapt or use parts of their codes:
   Stefan Grimme, W. Hujo, H. Kruse, P. Pracht,  : VdW corrections, initial TS optimization,
                  C. Bannwarth, S. Ehlert          DFT functionals, gCP, sTDA/sTD-DF
   Ed Valeev, F. Pavosevic, A. Kumar             : LibInt (2-el integral package), F12 methods
   Garnet Chan, S. Sharma, J. Yang, R. Olivares  : DMRG
   Ulf Ekstrom                                   : XCFun DFT Library
   Mihaly Kallay                                 : mrcc  (arbitrary order and MRCC methods)
   Jiri Pittner, Ondrej Demel                    : Mk-CCSD
   Frank Weinhold                                : gennbo (NPA and NBO analysis)
   Christopher J. Cramer and Donald G. Truhlar   : smd solvation model
   Lars Goerigk                                  : TD-DFT with DH, B97 family of functionals
   V. Asgeirsson, H. Jonsson                     : NEB implementation
   FAccTs GmbH                                   : IRC, NEB, NEB-TS, DLPNO-Multilevel, CI-OPT
                                                   MM, QMMM, 2- and 3-layer-ONIOM, Crystal-QMMM,
                                                   LR-CPCM, SF, NACMEs, symmetry and pop. for TD-DFT,
                                                   nearIR, NL-DFT gradient (VV10), updates on ESD,
                                                   ML-optimized integration grids
   S Lehtola, MJT Oliveira, MAL Marques          : LibXC Library
   Liviu Ungur et al                             : ANISO software


 Your calculation uses the libint2 library for the computation of 2-el integrals
 For citations please refer to: http://libint.valeyev.net

 Your ORCA version has been built with support for libXC version: 5.1.0
 For citations please refer to: https://tddft.org/programs/libxc/

 This ORCA versions uses:
   CBLAS   interface :  Fast vector & matrix operations
   LAPACKE interface :  Fast linear algebra routines
   SCALAPACK package :  Parallel linear algebra routines
   Shared memory     :  Shared parallel matrices
   BLAS/LAPACK       :  OpenBLAS 0.3.15  USE64BITINT DYNAMIC_ARCH NO_AFFINITY SkylakeX SINGLE_THREADED
        Core in use  :  SkylakeX
   Copyright (c) 2011-2014, The OpenBLAS Project


================================================================================

----- Orbital basis set information -----
Your calculation utilizes the basis: def2-SVP
   F. Weigend and R. Ahlrichs, Phys. Chem. Chem. Phys. 7, 3297 (2005).

----- AuxJ basis set information -----
Your calculation utilizes the auxiliary basis: def2/J
   F. Weigend, Phys. Chem. Chem. Phys. 8, 1057 (2006).

================================================================================
                                        WARNINGS
                       Please study these warnings very carefully!
================================================================================


WARNING: Geometry Optimization
  ===> : Switching off AutoStart
         For restart on a previous wavefunction, please use MOREAD

INFO   : the flag for use of the SHARK integral package has been found!

================================================================================
                                       INPUT FILE
================================================================================
NAME = KCl_DFT.inp
|  1> ## avogadro generated ORCA input file 
|  2> # Advanced Mode
|  3> # 
|  4> ! B3LYP OPT def2-SVP NormalPrint defgrid2 NormalSCF 
|  5> 
|  6> ! CPCM
|  7> %cpcm
|  8> epsilon 69.0
|  9> refrac 1.34
| 10> end
| 11> 
| 12> %scf
| 13> 	MaxIter 125
| 14> 	CNVDIIS 1
| 15> 	CNVSOSCF 1 
| 16> end
| 17> 
| 18> * xyz -8 1
| 19>   Cl       -0.20836        0.62944       -0.33831
| 20>    K        2.20039       -0.69550        0.21473
| 21> *
| 22> 
| 23> 
| 24>                          ****END OF INPUT****
================================================================================

                       *****************************
                       * Geometry Optimization Run *
                       *****************************

Geometry optimization settings:
Update method            Update   .... BFGS
Choice of coordinates    CoordSys .... Z-matrix Internals
Initial Hessian          InHess   .... Almoef's Model

Convergence Tolerances:
Energy Change            TolE     ....  5.0000e-06 Eh
Max. Gradient            TolMAXG  ....  3.0000e-04 Eh/bohr
RMS Gradient             TolRMSG  ....  1.0000e-04 Eh/bohr
Max. Displacement        TolMAXD  ....  4.0000e-03 bohr
RMS Displacement         TolRMSD  ....  2.0000e-03 bohr
Strict Convergence                ....  False
------------------------------------------------------------------------------
                        ORCA OPTIMIZATION COORDINATE SETUP
------------------------------------------------------------------------------

The optimization will be done in new redundant internal coordinates
Making redundant internal coordinates   ...  (new redundants) done
Evaluating the initial hessian          ...  (Almloef) done
Evaluating the coordinates              ...  done
Calculating the B-matrix                .... done
Calculating the G-matrix                .... done
Diagonalizing the G-matrix              .... done
The first mode is                       ....    0
The number of degrees of freedom        ....    1

    -----------------------------------------------------------------
                    Redundant Internal Coordinates


    -----------------------------------------------------------------
         Definition                    Initial Value    Approx d2E/dq
    -----------------------------------------------------------------
      1. B(K   1,Cl  0)                  2.8042         0.341829   
    -----------------------------------------------------------------

Number of atoms                         .... 2
Number of degrees of freedom            .... 1

         *************************************************************
         *                GEOMETRY OPTIMIZATION CYCLE   1            *
         *************************************************************
---------------------------------
CARTESIAN COORDINATES (ANGSTROEM)
---------------------------------
  Cl    -0.208360    0.629440   -0.338310
  K      2.200390   -0.695500    0.214730

----------------------------
CARTESIAN COORDINATES (A.U.)
----------------------------
  NO LB      ZA    FRAG     MASS         X           Y           Z
   0 Cl   17.0000    0    35.453   -0.393743    1.189469   -0.639313
   1 K    19.0000    0    39.100    4.158134   -1.314305    0.405781

--------------------------------
INTERNAL COORDINATES (ANGSTROEM)
--------------------------------
 Cl     0   0   0     0.000000000000     0.00000000     0.00000000
 K      1   0   0     2.804174710623     0.00000000     0.00000000

---------------------------
INTERNAL COORDINATES (A.U.)
---------------------------
 Cl     0   0   0     0.000000000000     0.00000000     0.00000000
 K      1   0   0     5.299122234746     0.00000000     0.00000000

---------------------
BASIS SET INFORMATION
---------------------
There are 2 groups of distinct atoms

 Group   1 Type Cl  : 10s7p1d contracted to 4s3p1d pattern {5311/511/1}
 Group   2 Type K   : 14s9p2d contracted to 5s3p2d pattern {63311/531/11}

Atom   0Cl   basis set group =>   1
Atom   1K    basis set group =>   2
---------------------------------
AUXILIARY/J BASIS SET INFORMATION
---------------------------------
There are 2 groups of distinct atoms

 Group   1 Type Cl  : 14s5p5d2f1g contracted to 8s4p3d1f1g pattern {71111111/2111/311/2/1}
 Group   2 Type K   : 19s5p5d3f1g contracted to 8s4p4d1f1g pattern {121111111/2111/2111/3/1}

Atom   0Cl   basis set group =>   1
Atom   1K    basis set group =>   2
------------------------------------------------------------------------------
                           ORCA GTO INTEGRAL CALCULATION
                           -- RI-GTO INTEGRALS CHOSEN --
------------------------------------------------------------------------------
------------------------------------------------------------------------------
                   ___                                                        
                  /   \      - P O W E R E D   B Y -                         
                 /     \                                                     
                 |  |  |   _    _      __       _____    __    __             
                 |  |  |  | |  | |    /  \     |  _  \  |  |  /  |          
                  \  \/   | |  | |   /    \    | | | |  |  | /  /          
                 / \  \   | |__| |  /  /\  \   | |_| |  |  |/  /          
                |  |  |   |  __  | /  /__\  \  |    /   |      \           
                |  |  |   | |  | | |   __   |  |    \   |  |\   \          
                \     /   | |  | | |  |  |  |  | |\  \  |  | \   \       
                 \___/    |_|  |_| |__|  |__|  |_| \__\ |__|  \__/        
                                                                              
                      - O R C A' S   B I G   F R I E N D -                    
                                      &                                       
                       - I N T E G R A L  F E E D E R -                       
                                                                              
 v1 FN, 2020, v2 2021                                                         
------------------------------------------------------------------------------


Reading SHARK input file KCl_DFT.SHARKINP.tmp ... SHARK General Contraction Test:  Segmented basis detected
   -> Pre-screening matrix *NOT* found on disk - recalculating with NShells=18
   -> Leaving CheckPreScreeningMatrix
ok
----------------------
SHARK INTEGRAL PACKAGE
----------------------

Number of atoms                             ...      2
Number of basis functions                   ...     42
Number of shells                            ...     18
Maximum angular momentum                    ...      2
Integral batch strategy                     ... SHARK/LIBINT Hybrid
RI-J (if used) integral strategy            ... SPLIT-RIJ (Revised 2003 algorithm where possible)
Printlevel                                  ...      2
Contraction scheme used                     ... SEGMENTED contraction
Coulomb Range Separation                    ... NOT USED
Exchange Range Separation                   ... NOT USED
Finite Nucleus Model                        ... NOT USED
Auxiliary Coulomb fitting basis             ... AVAILABLE
   # of basis functions in Aux-J            ...    107
   # of shells in Aux-J                     ...     35
   Maximum angular momentum in Aux-J        ...      4
Auxiliary J/K fitting basis                 ... NOT available
Auxiliary Correlation fitting basis         ... NOT available
Auxiliary 'external' fitting basis          ... NOT available
Integral threshold                          ...     2.500000e-11
Primitive cut-off                           ...     2.500000e-12
Primitive pair pre-selection threshold      ...     2.500000e-12

Calculating pre-screening integrals         ... done (  0.0 sec) Dimension = 18
Organizing shell pair data                  ... done (  0.0 sec)
Shell pair information
Total number of shell pairs                 ...       171
Shell pairs after pre-screening             ...       162
Total number of primitive shell pairs       ...      1003
Primitive shell pairs kept                  ...       797
          la=0 lb=0:     41 shell pairs
          la=1 lb=0:     50 shell pairs
          la=1 lb=1:     20 shell pairs
          la=2 lb=0:     27 shell pairs
          la=2 lb=1:     18 shell pairs
          la=2 lb=2:      6 shell pairs

Calculating one electron integrals          ... done (  0.0 sec)
Calculating RI/J V-Matrix + Cholesky decomp.... done (  0.0 sec)
Calculating Nuclear repulsion               ... done (  0.0 sec) ENN=     60.953491105017 Eh

SHARK setup successfully completed in   0.2 seconds

Maximum memory used throughout the entire GTOINT-calculation: 9.7 MB
-------------------------------------------------------------------------------
                                 ORCA SCF
-------------------------------------------------------------------------------

------------
SCF SETTINGS
------------
Hamiltonian:
 Density Functional     Method          .... DFT(GTOs)
 Exchange Functional    Exchange        .... B88
   X-Alpha parameter    XAlpha          ....  0.666667
   Becke's b parameter  XBeta           ....  0.004200
 Correlation Functional Correlation     .... LYP
 LDA part of GGA corr.  LDAOpt          .... VWN-5
 Gradients option       PostSCFGGA      .... off
 Hybrid DFT is turned on
   Fraction HF Exchange ScalHFX         ....  0.200000
   Scaling of DF-GGA-X  ScalDFX         ....  0.720000
   Scaling of DF-GGA-C  ScalDFC         ....  0.810000
   Scaling of DF-LDA-C  ScalLDAC        ....  1.000000
   Perturbative correction              ....  0.000000
   Density functional embedding theory  .... OFF
   NL short-range parameter             ....  4.800000
 RI-approximation to the Coulomb term is turned on
   Number of AuxJ basis functions       .... 107
   RIJ-COSX (HFX calculated with COS-X)).... on


General Settings:
 Integral files         IntName         .... KCl_DFT
 Hartree-Fock type      HFTyp           .... RHF
 Total Charge           Charge          ....   -8
 Multiplicity           Mult            ....    1
 Number of Electrons    NEL             ....   44
 Basis Dimension        Dim             ....   42
 Nuclear Repulsion      ENuc            ....     60.9534911050 Eh

Convergence Acceleration:
 DIIS                   CNVDIIS         .... on
   Start iteration      DIISMaxIt       ....    12
   Startup error        DIISStart       ....  0.200000
   # of expansion vecs  DIISMaxEq       ....     5
   Bias factor          DIISBfac        ....   1.050
   Max. coefficient     DIISMaxC        ....  10.000
 Trust-Rad. Augm. Hess. CNVTRAH         .... auto
   Auto Start mean grad. ratio tolernc. ....  1.125000
   Auto Start start iteration           ....    20
   Auto Start num. interpolation iter.  ....    10
   Max. Number of Micro iterations      ....    16
   Max. Number of Macro iterations      .... Maxiter - #DIIS iter
   Number of Davidson start vectors     ....     2
   Converg. threshold I  (grad. norm)   ....   1.000e-05
   Converg. threshold II (energy diff.) ....   1.000e-08
   Grad. Scal. Fac. for Micro threshold ....   0.100
   Minimum threshold for Micro iter.    ....   0.010
   NR start threshold (gradient norm)   ....   0.001
   Initial trust radius                 ....   0.400
   Minimum AH scaling param. (alpha)    ....   1.000
   Maximum AH scaling param. (alpha)    .... 1000.000
   Orbital update algorithm             .... Taylor
   White noise on init. David. guess    .... on
   Maximum white noise                  ....   0.010
   Quad. conv. algorithm                .... NR
 SOSCF                  CNVSOSCF        .... on
   Start iteration      SOSCFMaxIt      ....   150
   Startup grad/error   SOSCFStart      ....  0.003300
 Level Shifting         CNVShift        .... on
   Level shift para.    LevelShift      ....    0.2500
   Turn off err/grad.   ShiftErr        ....    0.0010
 Zerner damping         CNVZerner       .... off
 Static damping         CNVDamp         .... on
   Fraction old density DampFac         ....    0.7000
   Max. Damping (<1)    DampMax         ....    0.9800
   Min. Damping (>=0)   DampMin         ....    0.0000
   Turn off err/grad.   DampErr         ....    0.1000
 Fernandez-Rico         CNVRico         .... off

SCF Procedure:
 Maximum # iterations   MaxIter         ....   125
 SCF integral mode      SCFMode         .... Direct
   Integral package                     .... SHARK and LIBINT hybrid scheme
 Reset frequency        DirectResetFreq ....    20
 Integral Threshold     Thresh          ....  2.500e-11 Eh
 Primitive CutOff       TCut            ....  2.500e-12 Eh

Convergence Tolerance:
 Convergence Check Mode ConvCheckMode   .... Total+1el-Energy
 Convergence forced     ConvForced      .... 0
 Energy Change          TolE            ....  1.000e-08 Eh
 1-El. energy change                    ....  1.000e-05 Eh
 Orbital Gradient       TolG            ....  1.000e-05
 Orbital Rotation angle TolX            ....  1.000e-05
 DIIS Error             TolErr          ....  5.000e-07


Diagonalization of the overlap matrix:
Smallest eigenvalue                        ... 5.002e-02
Time for diagonalization                   ...    0.001 sec
Threshold for overlap eigenvalues          ... 1.000e-08
Number of eigenvalues below threshold      ... 0
Time for construction of square roots      ...    0.003 sec
Total time needed                          ...    0.005 sec

SHARK General Contraction Test:  Segmented basis detected
   -> Pre-screening matrix found on disk - Trying to read with NShells=18
   -> Passing Pre-screening matrix on to SHARK ...ok
   -> Leaving CheckPreScreeningMatrix
----------------------
SHARK INTEGRAL PACKAGE
----------------------

Number of atoms                             ...      2
Number of basis functions                   ...     42
Number of shells                            ...     18
Maximum angular momentum                    ...      2
Integral batch strategy                     ... SHARK/LIBINT Hybrid
RI-J (if used) integral strategy            ... SPLIT-RIJ (Revised 2003 algorithm where possible)
Printlevel                                  ...      2
Contraction scheme used                     ... SEGMENTED contraction
Coulomb Range Separation                    ... NOT USED
Exchange Range Separation                   ... NOT USED
Finite Nucleus Model                        ... NOT USED
Auxiliary Coulomb fitting basis             ... AVAILABLE
   # of basis functions in Aux-J            ...    107
   # of shells in Aux-J                     ...     35
   Maximum angular momentum in Aux-J        ...      4
Auxiliary J/K fitting basis                 ... NOT available
Auxiliary Correlation fitting basis         ... NOT available
Auxiliary 'external' fitting basis          ... NOT available
Integral threshold                          ...     2.500000e-11
Primitive cut-off                           ...     2.500000e-12
Primitive pair pre-selection threshold      ...     2.500000e-12

Time for model grid setup =    0.036 sec

------------------------------
INITIAL GUESS: MODEL POTENTIAL
------------------------------
Loading Hartree-Fock densities                     ... done
Calculating cut-offs                               ... done
Initializing the effective Hamiltonian             ... done
Setting up the integral package (SHARK)            ... done
Starting the Coulomb interaction                   ...     -> Generating integrals - 
    -> L=0 0 :     0.001 sec done=      1394 skipped=         0 prim-skipped=         0
    -> L=1 0 :     0.001 sec done=      1696 skipped=         2 prim-skipped=         0
    -> L=1 1 :     0.001 sec done=       680 skipped=         0 prim-skipped=         0
    -> L=2 0 :     0.001 sec done=       918 skipped=         0 prim-skipped=         0
    -> L=2 1 :     0.001 sec done=       612 skipped=         0 prim-skipped=         0
    -> L=2 2 :     0.000 sec done=       204 skipped=         0 prim-skipped=         0
done (   0.1 sec)
Reading the grid                                   ... done
Mapping shells                                     ... done
Starting the XC term evaluation                    ... done (   0.0 sec)
  promolecular density results
     # of electrons  =     36.000176194
     EX              =    -60.135888593
     EC              =     -1.491536126
     EX+EC           =    -61.627424719
Transforming the Hamiltonian                       ... done (   0.0 sec)
Diagonalizing the Hamiltonian                      ... done (   0.0 sec)
Back transforming the eigenvectors                 ... done (   0.0 sec)
Now organizing SCF variables                       ... done
                      ------------------
                      INITIAL GUESS DONE (   0.1 sec)
                      ------------------
-------------------
DFT GRID GENERATION
-------------------

General Integration Accuracy     IntAcc      ... 4.388
Radial Grid Type                 RadialGrid  ... OptM3 with GC (2021)
Angular Grid (max. ang.)         AngularGrid ... 4 (Lebedev-302)
Angular grid pruning method      GridPruning ... 4 (adaptive)
Weight generation scheme         WeightScheme... Becke
Basis function cutoff            BFCut       ... 1.0000e-11
Integration weight cutoff        WCut        ... 1.0000e-14
Angular grids for H and He will be reduced by one unit
Partially contracted basis set               ... off
Rotationally invariant grid construction     ... off

Total number of grid points                  ...    18696
Total number of batches                      ...      293
Average number of points per batch           ...       63
Average number of grid points per atom       ...     9348
Time for grid setup =    0.209 sec

--------------------
COSX GRID GENERATION
--------------------

GRIDX 1
-------
General Integration Accuracy     IntAcc      ... 3.816
Radial Grid Type                 RadialGrid  ... OptM3 with GC (2021)
Angular Grid (max. ang.)         AngularGrid ... 1 (Lebedev-50)
Angular grid pruning method      GridPruning ... 4 (adaptive)
Weight generation scheme         WeightScheme... Becke
Basis function cutoff            BFCut       ... 1.0000e-11
Integration weight cutoff        WCut        ... 1.0000e-14
Angular grids for H and He will be reduced by one unit
Partially contracted basis set               ... on
Rotationally invariant grid construction     ... off

Total number of grid points                  ...     2084
Total number of batches                      ...       34
Average number of points per batch           ...       61
Average number of grid points per atom       ...     1042
UseSFitting                                  ... on

GRIDX 2
-------
General Integration Accuracy     IntAcc      ... 4.020
Radial Grid Type                 RadialGrid  ... OptM3 with GC (2021)
Angular Grid (max. ang.)         AngularGrid ... 2 (Lebedev-110)
Angular grid pruning method      GridPruning ... 4 (adaptive)
Weight generation scheme         WeightScheme... Becke
Basis function cutoff            BFCut       ... 1.0000e-11
Integration weight cutoff        WCut        ... 1.0000e-14
Angular grids for H and He will be reduced by one unit
Partially contracted basis set               ... on
Rotationally invariant grid construction     ... off

Total number of grid points                  ...     4690
Total number of batches                      ...       74
Average number of points per batch           ...       63
Average number of grid points per atom       ...     2345
UseSFitting                                  ... on

GRIDX 3
-------
General Integration Accuracy     IntAcc      ... 4.338
Radial Grid Type                 RadialGrid  ... OptM3 with GC (2021)
Angular Grid (max. ang.)         AngularGrid ... 3 (Lebedev-194)
Angular grid pruning method      GridPruning ... 4 (adaptive)
Weight generation scheme         WeightScheme... Becke
Basis function cutoff            BFCut       ... 1.0000e-11
Integration weight cutoff        WCut        ... 1.0000e-14
Angular grids for H and He will be reduced by one unit
Partially contracted basis set               ... on
Rotationally invariant grid construction     ... off

Total number of grid points                  ...    11297
Total number of batches                      ...      177
Average number of points per batch           ...       63
Average number of grid points per atom       ...     5648
UseSFitting                                  ... on

Time for X-Grid setup             =    0.177 sec


--------------------
CPCM SOLVATION MODEL
--------------------
CPCM parameters:
  Epsilon                                         ...      69.0000
  Refrac                                          ...       1.3400
  Rsolv                                           ...       1.3000
  Surface type                                    ... GAUSSIAN VDW
  Epsilon function type                           ...         CPCM
Radii:
 Radius for Cl used is    3.9684 Bohr (=   2.1000 Ang.)
 Radius for K  used is    6.2361 Bohr (=   3.3000 Ang.)
Calculating surface                               ...        done! (  0.0s)
GEPOL surface points                              ...          185
GEPOL Volume                                      ...    1132.9668
GEPOL Surface-area                                ...     542.7445
Calculating surface distance matrix               ...        done! (  0.0s)
Performing Cholesky decomposition & store         ...        done! (  0.0s)
Overall time for CPCM initialization              ...                 0.0s
--------------
SCF ITERATIONS
--------------
               ***  Starting incremental Fock matrix formation  ***
==>> SHARK/AuxDens: NDens=1 Thresh =     2.500000e-11 TCut=    2.500000e-12 Lmax=2 LmaxAux=4
    -> Making Hermite density - ok     0.001 sec
    -> Making Aux-basis density - (lmax=2)
    -> L=0 0:    0.002 sec done=      1435 (100.0%) skipped=         0 
    -> L=1 0:    0.002 sec done=      1715 ( 98.0%) skipped=        35 
    -> L=1 1:    0.001 sec done=       700 (100.0%) skipped=         0 
    -> L=2 0:    0.001 sec done=       910 ( 96.3%) skipped=        35 
    -> L=2 1:    0.001 sec done=       630 (100.0%) skipped=         0 
    -> L=2 2:    0.000 sec done=       210 (100.0%) skipped=         0 
    -> Aux basis density formed in    0.0 sec
    -> Solving linear equations - ok (   0.0 sec)
        Auxbasis Hermite Density:
        P|s>                     ...  0.000
        P|p>                     ...  0.000
        P|d>                     ...  0.000
        P|f>                     ...  0.000
        P|g>                     ...  0.000
        Building the Coulomb matrix: 
        J|ss>                          ... done (  0.0 sec) ndone=    15087 nskipped1=        0 nskipped2=      153
        J|ps>                          ... done (  0.0 sec) ndone=    16836 nskipped1=       96 nskipped2=      240
        J|pp>                          ... done (  0.0 sec) ndone=     7741 nskipped1=        0 nskipped2=       59
        J|ds>                          ... done (  0.0 sec) ndone=     4215 nskipped1=        0 nskipped2=      105
        J|dp>                          ... done (  0.0 sec) ndone=     2876 nskipped1=        0 nskipped2=        4
        J|dd>                          ... done (  0.0 sec) ndone=      360 nskipped1=        0 nskipped2=        0
        Coulomb matrix built in   0.0 sec

        Total time for Split-RI-J                ...    0.016 sec
          (0) Prelude                            ...    0.000 sec
          (1) Hermite density                    ...    0.000 sec
          (2) Aux basis density                  ...    0.000 sec (inner=  0.0)
          (3) Linear equation solution           ...    0.000 sec
          (4) J-Matrix construction              ...    0.006 sec (inner=  0.0)
        ---------------------------------------------------------

                         ----------------------------
                         !        ITERATION     0   !
                         ----------------------------
   Total Energy        :   -1059.609355170292 Eh
   Energy Change       :   -1059.609355170292 Eh
   MAX-DP              :       0.294974321457
   RMS-DP              :       0.013831248329
   Actual Damping      :       0.7000
   Actual Level Shift  :       0.2500 Eh
   Int. Num. El.       :    43.97197487 (UP=   21.98598744 DN=   21.98598744)
   Exchange            :   -49.05325066
   Correlation         :    -1.94583016

==>> SHARK/AuxDens: NDens=1 Thresh =     2.500000e-11 TCut=    2.500000e-12 Lmax=2 LmaxAux=4
    -> Making Hermite density - ok     0.001 sec
    -> Making Aux-basis density - (lmax=2)
    -> L=0 0:    0.001 sec done=      1435 (100.0%) skipped=         0 
    -> L=1 0:    0.002 sec done=      1714 ( 97.9%) skipped=        36 
    -> L=1 1:    0.001 sec done=       699 ( 99.9%) skipped=         1 
    -> L=2 0:    0.001 sec done=       916 ( 96.9%) skipped=        29 
    -> L=2 1:    0.001 sec done=       630 (100.0%) skipped=         0 
    -> L=2 2:    0.000 sec done=       210 (100.0%) skipped=         0 
    -> Aux basis density formed in    0.0 sec
    -> Solving linear equations - ok (   0.0 sec)
        Auxbasis Hermite Density:
        P|s>                     ...  0.000
        P|p>                     ...  0.000
        P|d>                     ...  0.000
        P|f>                     ...  0.000
        P|g>                     ...  0.000
        Building the Coulomb matrix: 
        J|ss>                          ... done (  0.0 sec) ndone=    15087 nskipped1=        0 nskipped2=      153
        J|ps>                          ... done (  0.0 sec) ndone=    16770 nskipped1=      174 nskipped2=      123
        J|pp>                          ... done (  0.0 sec) ndone=     7736 nskipped1=        5 nskipped2=       59
        J|ds>                          ... done (  0.0 sec) ndone=     4200 nskipped1=       12 nskipped2=      102
        J|dp>                          ... done (  0.0 sec) ndone=     2876 nskipped1=        0 nskipped2=        4
        J|dd>                          ... done (  0.0 sec) ndone=      360 nskipped1=        0 nskipped2=        0
        Coulomb matrix built in   0.0 sec

        Total time for Split-RI-J                ...    0.011 sec
          (0) Prelude                            ...    0.000 sec
          (1) Hermite density                    ...    0.000 sec
          (2) Aux basis density                  ...    0.000 sec (inner=  0.0)
          (3) Linear equation solution           ...    0.000 sec
          (4) J-Matrix construction              ...    0.004 sec (inner=  0.0)
        ---------------------------------------------------------

                         ----------------------------
                         !        ITERATION     1   !
                         ----------------------------
   Total Energy        :   -1059.658455720715 Eh
   Energy Change       :      -0.049100550423 Eh
   MAX-DP              :       0.427000925799
   RMS-DP              :       0.014872513610
   Actual Damping      :       0.7000
   Actual Level Shift  :       0.2500 Eh
   Int. Num. El.       :    43.96744154 (UP=   21.98372077 DN=   21.98372077)
   Exchange            :   -48.95102978
   Correlation         :    -1.94059434

==>> SHARK/AuxDens: NDens=1 Thresh =     2.500000e-11 TCut=    2.500000e-12 Lmax=2 LmaxAux=4
    -> Making Hermite density - ok     0.001 sec
    -> Making Aux-basis density - (lmax=2)
    -> L=0 0:    0.002 sec done=      1435 (100.0%) skipped=         0 
    -> L=1 0:    0.002 sec done=      1714 ( 97.9%) skipped=        36 
    -> L=1 1:    0.001 sec done=       699 ( 99.9%) skipped=         1 
    -> L=2 0:    0.001 sec done=       916 ( 96.9%) skipped=        29 
    -> L=2 1:    0.001 sec done=       630 (100.0%) skipped=         0 
    -> L=2 2:    0.000 sec done=       210 (100.0%) skipped=         0 
    -> Aux basis density formed in    0.0 sec
    -> Solving linear equations - ok (   0.0 sec)
        Auxbasis Hermite Density:
        P|s>                     ...  0.000
        P|p>                     ...  0.000
        P|d>                     ...  0.000
        P|f>                     ...  0.000
        P|g>                     ...  0.000
        Building the Coulomb matrix: 
        J|ss>                          ... done (  0.0 sec) ndone=    15087 nskipped1=        0 nskipped2=      153
        J|ps>                          ... done (  0.0 sec) ndone=    16786 nskipped1=      150 nskipped2=      131
        J|pp>                          ... done (  0.0 sec) ndone=     7731 nskipped1=        5 nskipped2=       59
        J|ds>                          ... done (  0.0 sec) ndone=     4200 nskipped1=       12 nskipped2=      102
        J|dp>                          ... done (  0.0 sec) ndone=     2876 nskipped1=        0 nskipped2=        4
        J|dd>                          ... done (  0.0 sec) ndone=      360 nskipped1=        0 nskipped2=        0
        Coulomb matrix built in   0.0 sec

        Total time for Split-RI-J                ...    0.012 sec
          (0) Prelude                            ...    0.000 sec
          (1) Hermite density                    ...    0.000 sec
          (2) Aux basis density                  ...    0.000 sec (inner=  0.0)
          (3) Linear equation solution           ...    0.000 sec
          (4) J-Matrix construction              ...    0.004 sec (inner=  0.0)
        ---------------------------------------------------------
                               ***Turning on DIIS***

                         ----------------------------
                         !        ITERATION     2   !
                         ----------------------------
   Total Energy        :   -1059.692736022011 Eh
   Energy Change       :      -0.034280301296 Eh
   MAX-DP              :       1.420468347825
   RMS-DP              :       0.044011428118
   Actual Damping      :       0.0000
   Actual Level Shift  :       0.2500 Eh
   Int. Num. El.       :    43.96106787 (UP=   21.98053394 DN=   21.98053394)
   Exchange            :   -48.87274349
   Correlation         :    -1.93574713
   DIIS-Error          :       0.049166521816

==>> SHARK/AuxDens: NDens=1 Thresh =     2.500000e-11 TCut=    2.500000e-12 Lmax=2 LmaxAux=4
    -> Making Hermite density - ok     0.001 sec
    -> Making Aux-basis density - (lmax=2)
    -> L=0 0:    0.001 sec done=      1435 (100.0%) skipped=         0 
    -> L=1 0:    0.002 sec done=      1715 ( 98.0%) skipped=        35 
    -> L=1 1:    0.001 sec done=       700 (100.0%) skipped=         0 
    -> L=2 0:    0.001 sec done=       926 ( 98.0%) skipped=        19 
    -> L=2 1:    0.001 sec done=       630 (100.0%) skipped=         0 
    -> L=2 2:    0.000 sec done=       210 (100.0%) skipped=         0 
    -> Aux basis density formed in    0.0 sec
    -> Solving linear equations - ok (   0.0 sec)
        Auxbasis Hermite Density:
        P|s>                     ...  0.000
        P|p>                     ...  0.000
        P|d>                     ...  0.000
        P|f>                     ...  0.000
        P|g>                     ...  0.000
        Building the Coulomb matrix: 
        J|ss>                          ... done (  0.0 sec) ndone=    15087 nskipped1=        0 nskipped2=      153
        J|ps>                          ... done (  0.0 sec) ndone=    16805 nskipped1=      135 nskipped2=      193
        J|pp>                          ... done (  0.0 sec) ndone=     7741 nskipped1=        0 nskipped2=       59
        J|ds>                          ... done (  0.0 sec) ndone=     4205 nskipped1=        6 nskipped2=      103
        J|dp>                          ... done (  0.0 sec) ndone=     2876 nskipped1=        0 nskipped2=        4
        J|dd>                          ... done (  0.0 sec) ndone=      360 nskipped1=        0 nskipped2=        0
        Coulomb matrix built in   0.0 sec

        Total time for Split-RI-J                ...    0.012 sec
          (0) Prelude                            ...    0.000 sec
          (1) Hermite density                    ...    0.000 sec
          (2) Aux basis density                  ...    0.000 sec (inner=  0.0)
          (3) Linear equation solution           ...    0.000 sec
          (4) J-Matrix construction              ...    0.004 sec (inner=  0.0)
        ---------------------------------------------------------

                         ----------------------------
                         !        ITERATION     3   !
                         ----------------------------
   Total Energy        :   -1059.763963976825 Eh
   Energy Change       :      -0.071227954814 Eh
   MAX-DP              :       0.203258662137
   RMS-DP              :       0.007136722317
   Actual Damping      :       0.0000
   Actual Level Shift  :       0.2500 Eh
   Int. Num. El.       :    43.94015475 (UP=   21.97007737 DN=   21.97007737)
   Exchange            :   -48.71836748
   Correlation         :    -1.92394057
   DIIS-Error          :       0.039566800060
   DIIS coefficients:
      0.38381   0.61619

==>> SHARK/AuxDens: NDens=1 Thresh =     2.500000e-11 TCut=    2.500000e-12 Lmax=2 LmaxAux=4
    -> Making Hermite density - ok     0.001 sec
    -> Making Aux-basis density - (lmax=2)
    -> L=0 0:    0.002 sec done=      1429 ( 99.6%) skipped=         6 
    -> L=1 0:    0.002 sec done=      1706 ( 97.5%) skipped=        44 
    -> L=1 1:    0.002 sec done=       699 ( 99.9%) skipped=         1 
    -> L=2 0:    0.001 sec done=       915 ( 96.8%) skipped=        30 
    -> L=2 1:    0.001 sec done=       630 (100.0%) skipped=         0 
    -> L=2 2:    0.000 sec done=       210 (100.0%) skipped=         0 
    -> Aux basis density formed in    0.0 sec
    -> Solving linear equations - ok (   0.0 sec)
        Auxbasis Hermite Density:
        P|s>                     ...  0.000
        P|p>                     ...  0.000
        P|d>                     ...  0.000
        P|f>                     ...  0.000
        P|g>                     ...  0.000
        Building the Coulomb matrix: 
        J|ss>                          ... done (  0.0 sec) ndone=    15075 nskipped1=        6 nskipped2=      153
        J|ps>                          ... done (  0.0 sec) ndone=    16737 nskipped1=      189 nskipped2=      114
        J|pp>                          ... done (  0.0 sec) ndone=     7692 nskipped1=       20 nskipped2=       48
        J|ds>                          ... done (  0.0 sec) ndone=     4144 nskipped1=       42 nskipped2=       74
        J|dp>                          ... done (  0.0 sec) ndone=     2876 nskipped1=        0 nskipped2=        4
        J|dd>                          ... done (  0.0 sec) ndone=      360 nskipped1=        0 nskipped2=        0
        Coulomb matrix built in   0.0 sec

        Total time for Split-RI-J                ...    0.013 sec
          (0) Prelude                            ...    0.000 sec
          (1) Hermite density                    ...    0.000 sec
          (2) Aux basis density                  ...    0.000 sec (inner=  0.0)
          (3) Linear equation solution           ...    0.000 sec
          (4) J-Matrix construction              ...    0.004 sec (inner=  0.0)
        ---------------------------------------------------------

                         ----------------------------
                         !        ITERATION     4   !
                         ----------------------------
   Total Energy        :   -1059.770146102494 Eh
   Energy Change       :      -0.006182125670 Eh
   MAX-DP              :       0.121635298039
   RMS-DP              :       0.003801814166
   Actual Damping      :       0.0000
   Actual Level Shift  :       0.2500 Eh
   Int. Num. El.       :    43.93726770 (UP=   21.96863385 DN=   21.96863385)
   Exchange            :   -48.75982817
   Correlation         :    -1.92479336
   DIIS-Error          :       0.006215405889
   DIIS coefficients:
     -0.01694  -0.14076   1.15770

==>> SHARK/AuxDens: NDens=1 Thresh =     2.500000e-11 TCut=    2.500000e-12 Lmax=2 LmaxAux=4
    -> Making Hermite density - ok     0.001 sec
    -> Making Aux-basis density - (lmax=2)
    -> L=0 0:    0.002 sec done=      1426 ( 99.4%) skipped=         9 
    -> L=1 0:    0.002 sec done=      1680 ( 96.0%) skipped=        70 
    -> L=1 1:    0.002 sec done=       699 ( 99.9%) skipped=         1 
    -> L=2 0:    0.001 sec done=       910 ( 96.3%) skipped=        35 
    -> L=2 1:    0.001 sec done=       630 (100.0%) skipped=         0 
    -> L=2 2:    0.000 sec done=       210 (100.0%) skipped=         0 
    -> Aux basis density formed in    0.0 sec
    -> Solving linear equations - ok (   0.0 sec)
        Auxbasis Hermite Density:
        P|s>                     ...  0.000
        P|p>                     ...  0.000
        P|d>                     ...  0.000
        P|f>                     ...  0.000
        P|g>                     ...  0.000
        Building the Coulomb matrix: 
        J|ss>                          ... done (  0.0 sec) ndone=    15045 nskipped1=       31 nskipped2=      152
        J|ps>                          ... done (  0.0 sec) ndone=    16710 nskipped1=      218 nskipped2=      106
        J|pp>                          ... done (  0.0 sec) ndone=     7672 nskipped1=       35 nskipped2=       48
        J|ds>                          ... done (  0.0 sec) ndone=     4120 nskipped1=       57 nskipped2=       71
        J|dp>                          ... done (  0.0 sec) ndone=     2871 nskipped1=        5 nskipped2=        4
        J|dd>                          ... done (  0.0 sec) ndone=      360 nskipped1=        0 nskipped2=        0
        Coulomb matrix built in   0.0 sec

        Total time for Split-RI-J                ...    0.016 sec
          (0) Prelude                            ...    0.000 sec
          (1) Hermite density                    ...    0.000 sec
          (2) Aux basis density                  ...    0.000 sec (inner=  0.0)
          (3) Linear equation solution           ...    0.000 sec
          (4) J-Matrix construction              ...    0.007 sec (inner=  0.0)
        ---------------------------------------------------------

                         ----------------------------
                         !        ITERATION     5   !
                         ----------------------------
   Total Energy        :   -1059.770831336561 Eh
   Energy Change       :      -0.000685234066 Eh
   MAX-DP              :       0.071643564907
   RMS-DP              :       0.002302995657
   Actual Damping      :       0.0000
   Actual Level Shift  :       0.2500 Eh
   Int. Num. El.       :    43.93555516 (UP=   21.96777758 DN=   21.96777758)
   Exchange            :   -48.75716670
   Correlation         :    -1.92438475
   DIIS-Error          :       0.003740172338
   DIIS coefficients:
     -0.03882  -0.04941  -0.13042   1.21865

==>> SHARK/AuxDens: NDens=1 Thresh =     2.500000e-11 TCut=    2.500000e-12 Lmax=2 LmaxAux=4
    -> Making Hermite density - ok     0.001 sec
    -> Making Aux-basis density - (lmax=2)
    -> L=0 0:    0.001 sec done=      1426 ( 99.4%) skipped=         9 
    -> L=1 0:    0.002 sec done=      1680 ( 96.0%) skipped=        70 
    -> L=1 1:    0.001 sec done=       689 ( 98.4%) skipped=        11 
    -> L=2 0:    0.001 sec done=       887 ( 93.9%) skipped=        58 
    -> L=2 1:    0.001 sec done=       630 (100.0%) skipped=         0 
    -> L=2 2:    0.000 sec done=       210 (100.0%) skipped=         0 
    -> Aux basis density formed in    0.0 sec
    -> Solving linear equations - ok (   0.0 sec)
        Auxbasis Hermite Density:
        P|s>                     ...  0.000
        P|p>                     ...  0.000
        P|d>                     ...  0.000
        P|f>                     ...  0.000
        P|g>                     ...  0.000
        Building the Coulomb matrix: 
        J|ss>                          ... done (  0.0 sec) ndone=    14987 nskipped1=       55 nskipped2=      144
        J|ps>                          ... done (  0.0 sec) ndone=    16684 nskipped1=      248 nskipped2=       96
        J|pp>                          ... done (  0.0 sec) ndone=     7642 nskipped1=       50 nskipped2=       48
        J|ds>                          ... done (  0.0 sec) ndone=     4085 nskipped1=       81 nskipped2=       67
        J|dp>                          ... done (  0.0 sec) ndone=     2866 nskipped1=       10 nskipped2=        4
        J|dd>                          ... done (  0.0 sec) ndone=      360 nskipped1=        0 nskipped2=        0
        Coulomb matrix built in   0.0 sec

        Total time for Split-RI-J                ...    0.010 sec
          (0) Prelude                            ...    0.000 sec
          (1) Hermite density                    ...    0.000 sec
          (2) Aux basis density                  ...    0.000 sec (inner=  0.0)
          (3) Linear equation solution           ...    0.000 sec
          (4) J-Matrix construction              ...    0.004 sec (inner=  0.0)
        ---------------------------------------------------------

                         ----------------------------
                         !        ITERATION     6   !
                         ----------------------------
   Total Energy        :   -1059.771075571324 Eh
   Energy Change       :      -0.000244234763 Eh
   MAX-DP              :       0.041552357824
   RMS-DP              :       0.001375990100
   Actual Damping      :       0.0000
   Actual Level Shift  :       0.2500 Eh
   Int. Num. El.       :    43.93454638 (UP=   21.96727319 DN=   21.96727319)
   Exchange            :   -48.75827767
   Correlation         :    -1.92421074
   DIIS-Error          :       0.002385966342
   DIIS coefficients:
     -0.02210   0.01708  -0.27791  -0.08868   1.37160

==>> SHARK/AuxDens: NDens=1 Thresh =     2.500000e-11 TCut=    2.500000e-12 Lmax=2 LmaxAux=4
    -> Making Hermite density - ok     0.000 sec
    -> Making Aux-basis density - (lmax=2)
    -> L=0 0:    0.001 sec done=      1425 ( 99.3%) skipped=        10 
    -> L=1 0:    0.002 sec done=      1680 ( 96.0%) skipped=        70 
    -> L=1 1:    0.001 sec done=       680 ( 97.1%) skipped=        20 
    -> L=2 0:    0.001 sec done=       900 ( 95.2%) skipped=        45 
    -> L=2 1:    0.001 sec done=       629 ( 99.8%) skipped=         1 
    -> L=2 2:    0.000 sec done=       210 (100.0%) skipped=         0 
    -> Aux basis density formed in    0.0 sec
    -> Solving linear equations - ok (   0.0 sec)
        Auxbasis Hermite Density:
        P|s>                     ...  0.000
        P|p>                     ...  0.000
        P|d>                     ...  0.000
        P|f>                     ...  0.000
        P|g>                     ...  0.000
        Building the Coulomb matrix: 
        J|ss>                          ... done (  0.0 sec) ndone=    15005 nskipped1=       36 nskipped2=      145
        J|ps>                          ... done (  0.0 sec) ndone=    16677 nskipped1=      255 nskipped2=       96
        J|pp>                          ... done (  0.0 sec) ndone=     7607 nskipped1=       75 nskipped2=       48
        J|ds>                          ... done (  0.0 sec) ndone=     4079 nskipped1=       93 nskipped2=       64
        J|dp>                          ... done (  0.0 sec) ndone=     2871 nskipped1=        5 nskipped2=        4
        J|dd>                          ... done (  0.0 sec) ndone=      360 nskipped1=        0 nskipped2=        0
        Coulomb matrix built in   0.0 sec

        Total time for Split-RI-J                ...    0.011 sec
          (0) Prelude                            ...    0.000 sec
          (1) Hermite density                    ...    0.000 sec
          (2) Aux basis density                  ...    0.000 sec (inner=  0.0)
          (3) Linear equation solution           ...    0.000 sec
          (4) J-Matrix construction              ...    0.004 sec (inner=  0.0)
        ---------------------------------------------------------
                      *** Initiating the SOSCF procedure ***
                           *** Shutting down DIIS ***
                      *** Re-Reading the Fockian *** 
                      *** Removing any level shift *** 

                         ----------------------------
                         !        ITERATION     7   !
                         ----------------------------
   Total Energy        :   -1059.771169244208 Eh
   Energy Change       :      -0.000093672884 Eh
   MAX-DP              :       0.022406520989
   RMS-DP              :       0.000825648726
   Orbital gradient    :       0.002062788796
   Orbital Rotation    :       0.002062788796
   Actual Damping      :       0.0000
   Int. Num. El.       :    43.93395907 (UP=   21.96697953 DN=   21.96697953)
   Exchange            :   -48.75634127
   Correlation         :    -1.92401665

               *** Restarting incremental Fock matrix formation ***
==>> SHARK/AuxDens: NDens=1 Thresh =     2.500000e-11 TCut=    2.500000e-12 Lmax=2 LmaxAux=4
    -> Making Hermite density - ok     0.001 sec
    -> Making Aux-basis density - (lmax=2)
    -> L=0 0:    0.001 sec done=      1435 (100.0%) skipped=         0 
    -> L=1 0:    0.002 sec done=      1716 ( 98.1%) skipped=        34 
    -> L=1 1:    0.001 sec done=       700 (100.0%) skipped=         0 
    -> L=2 0:    0.001 sec done=       935 ( 98.9%) skipped=        10 
    -> L=2 1:    0.001 sec done=       630 (100.0%) skipped=         0 
    -> L=2 2:    0.000 sec done=       210 (100.0%) skipped=         0 
    -> Aux basis density formed in    0.0 sec
    -> Solving linear equations - ok (   0.0 sec)
        Auxbasis Hermite Density:
        P|s>                     ...  0.000
        P|p>                     ...  0.000
        P|d>                     ...  0.000
        P|f>                     ...  0.000
        P|g>                     ...  0.000
        Building the Coulomb matrix: 
        J|ss>                          ... done (  0.0 sec) ndone=    15087 nskipped1=        0 nskipped2=      153
        J|ps>                          ... done (  0.0 sec) ndone=    16829 nskipped1=      108 nskipped2=      235
        J|pp>                          ... done (  0.0 sec) ndone=     7741 nskipped1=        0 nskipped2=       59
        J|ds>                          ... done (  0.0 sec) ndone=     4215 nskipped1=        0 nskipped2=      105
        J|dp>                          ... done (  0.0 sec) ndone=     2876 nskipped1=        0 nskipped2=        4
        J|dd>                          ... done (  0.0 sec) ndone=      360 nskipped1=        0 nskipped2=        0
        Coulomb matrix built in   0.0 sec

        Total time for Split-RI-J                ...    0.011 sec
          (0) Prelude                            ...    0.000 sec
          (1) Hermite density                    ...    0.000 sec
          (2) Aux basis density                  ...    0.000 sec (inner=  0.0)
          (3) Linear equation solution           ...    0.000 sec
          (4) J-Matrix construction              ...    0.004 sec (inner=  0.0)
        ---------------------------------------------------------

                         ----------------------------
                         !        ITERATION     8   !
                         ----------------------------
   Total Energy        :   -1059.771230559701 Eh
   Energy Change       :      -0.000061315493 Eh
   MAX-DP              :       0.038509243755
   RMS-DP              :       0.001542855458
   Orbital gradient    :       0.001125024503
   Orbital Rotation    :       0.007288219285
   Actual Damping      :       0.0000
   Int. Num. El.       :    43.93363918 (UP=   21.96681959 DN=   21.96681959)
   Exchange            :   -48.75543195
   Correlation         :    -1.92390833

==>> SHARK/AuxDens: NDens=1 Thresh =     2.500000e-11 TCut=    2.500000e-12 Lmax=2 LmaxAux=4
    -> Making Hermite density - ok     0.001 sec
    -> Making Aux-basis density - (lmax=2)
    -> L=0 0:    0.001 sec done=      1425 ( 99.3%) skipped=        10 
    -> L=1 0:    0.002 sec done=      1686 ( 96.3%) skipped=        64 
    -> L=1 1:    0.001 sec done=       667 ( 95.3%) skipped=        33 
    -> L=2 0:    0.001 sec done=       901 ( 95.3%) skipped=        44 
    -> L=2 1:    0.001 sec done=       620 ( 98.4%) skipped=        10 
    -> L=2 2:    0.000 sec done=       210 (100.0%) skipped=         0 
    -> Aux basis density formed in    0.0 sec
    -> Solving linear equations - ok (   0.0 sec)
        Auxbasis Hermite Density:
        P|s>                     ...  0.000
        P|p>                     ...  0.000
        P|d>                     ...  0.000
        P|f>                     ...  0.000
        P|g>                     ...  0.000
        Building the Coulomb matrix: 
        J|ss>                          ... done (  0.0 sec) ndone=    14993 nskipped1=       48 nskipped2=      145
        J|ps>                          ... done (  0.0 sec) ndone=    16677 nskipped1=      255 nskipped2=       96
        J|pp>                          ... done (  0.0 sec) ndone=     7637 nskipped1=       60 nskipped2=       48
        J|ds>                          ... done (  0.0 sec) ndone=     4079 nskipped1=       93 nskipped2=       64
        J|dp>                          ... done (  0.0 sec) ndone=     2871 nskipped1=        5 nskipped2=        4
        J|dd>                          ... done (  0.0 sec) ndone=      360 nskipped1=        0 nskipped2=        0
        Coulomb matrix built in   0.0 sec

        Total time for Split-RI-J                ...    0.012 sec
          (0) Prelude                            ...    0.000 sec
          (1) Hermite density                    ...    0.000 sec
          (2) Aux basis density                  ...    0.000 sec (inner=  0.0)
          (3) Linear equation solution           ...    0.000 sec
          (4) J-Matrix construction              ...    0.005 sec (inner=  0.0)
        ---------------------------------------------------------

                         ----------------------------
                         !        ITERATION     9   !
                         ----------------------------
   Total Energy        :   -1059.771257271086 Eh
   Energy Change       :      -0.000026711385 Eh
   MAX-DP              :       0.023877563098
   RMS-DP              :       0.000934987214
   Orbital gradient    :       0.000195145538
   Orbital Rotation    :       0.003742616303
   Actual Damping      :       0.0000
   Int. Num. El.       :    43.93347032 (UP=   21.96673516 DN=   21.96673516)
   Exchange            :   -48.75455616
   Correlation         :    -1.92379890

==>> SHARK/AuxDens: NDens=1 Thresh =     2.500000e-11 TCut=    2.500000e-12 Lmax=2 LmaxAux=4
    -> Making Hermite density - ok     0.001 sec
    -> Making Aux-basis density - (lmax=2)
    -> L=0 0:    0.001 sec done=      1402 ( 97.7%) skipped=        33 
    -> L=1 0:    0.002 sec done=      1682 ( 96.1%) skipped=        68 
    -> L=1 1:    0.001 sec done=       671 ( 95.9%) skipped=        29 
    -> L=2 0:    0.001 sec done=       890 ( 94.2%) skipped=        55 
    -> L=2 1:    0.001 sec done=       629 ( 99.8%) skipped=         1 
    -> L=2 2:    0.000 sec done=       210 (100.0%) skipped=         0 
    -> Aux basis density formed in    0.0 sec
    -> Solving linear equations - ok (   0.0 sec)
        Auxbasis Hermite Density:
        P|s>                     ...  0.000
        P|p>                     ...  0.000
        P|d>                     ...  0.000
        P|f>                     ...  0.000
        P|g>                     ...  0.000
        Building the Coulomb matrix: 
        J|ss>                          ... done (  0.0 sec) ndone=    15011 nskipped1=       36 nskipped2=      145
        J|ps>                          ... done (  0.0 sec) ndone=    16645 nskipped1=      267 nskipped2=       83
        J|pp>                          ... done (  0.0 sec) ndone=     7602 nskipped1=       80 nskipped2=       48
        J|ds>                          ... done (  0.0 sec) ndone=     4005 nskipped1=      123 nskipped2=       21
        J|dp>                          ... done (  0.0 sec) ndone=     2842 nskipped1=        5 nskipped2=        3
        J|dd>                          ... done (  0.0 sec) ndone=      360 nskipped1=        0 nskipped2=        0
        Coulomb matrix built in   0.0 sec

        Total time for Split-RI-J                ...    0.015 sec
          (0) Prelude                            ...    0.000 sec
          (1) Hermite density                    ...    0.000 sec
          (2) Aux basis density                  ...    0.000 sec (inner=  0.0)
          (3) Linear equation solution           ...    0.000 sec
          (4) J-Matrix construction              ...    0.006 sec (inner=  0.0)
        ---------------------------------------------------------

                         ----------------------------
                         !        ITERATION    10   !
                         ----------------------------
   Total Energy        :   -1059.771259710963 Eh
   Energy Change       :      -0.000002439876 Eh
   MAX-DP              :       0.010201629303
   RMS-DP              :       0.000432761204
   Orbital gradient    :       0.000059491852
   Orbital Rotation    :       0.001380657875
   Actual Damping      :       0.0000
   Int. Num. El.       :    43.93365364 (UP=   21.96682682 DN=   21.96682682)
   Exchange            :   -48.75440455
   Correlation         :    -1.92380458

==>> SHARK/AuxDens: NDens=1 Thresh =     2.500000e-11 TCut=    2.500000e-12 Lmax=2 LmaxAux=4
    -> Making Hermite density - ok     0.001 sec
    -> Making Aux-basis density - (lmax=2)
    -> L=0 0:    0.001 sec done=      1386 ( 96.6%) skipped=        49 
    -> L=1 0:    0.002 sec done=      1680 ( 96.0%) skipped=        70 
    -> L=1 1:    0.001 sec done=       665 ( 95.0%) skipped=        35 
    -> L=2 0:    0.000 sec done=       881 ( 93.2%) skipped=        64 
    -> L=2 1:    0.001 sec done=       597 ( 94.8%) skipped=        33 
    -> L=2 2:    0.000 sec done=       210 (100.0%) skipped=         0 
    -> Aux basis density formed in    0.0 sec
    -> Solving linear equations - ok (   0.0 sec)
        Auxbasis Hermite Density:
        P|s>                     ...  0.000
        P|p>                     ...  0.000
        P|d>                     ...  0.000
        P|f>                     ...  0.000
        P|g>                     ...  0.000
        Building the Coulomb matrix: 
        J|ss>                          ... done (  0.0 sec) ndone=    14908 nskipped1=       73 nskipped2=      121
        J|ps>                          ... done (  0.0 sec) ndone=    16592 nskipped1=      290 nskipped2=       83
        J|pp>                          ... done (  0.0 sec) ndone=     7527 nskipped1=      120 nskipped2=       28
        J|ds>                          ... done (  0.0 sec) ndone=     3975 nskipped1=      159 nskipped2=       15
        J|dp>                          ... done (  0.0 sec) ndone=     2837 nskipped1=       10 nskipped2=        3
        J|dd>                          ... done (  0.0 sec) ndone=      360 nskipped1=        0 nskipped2=        0
        Coulomb matrix built in   0.0 sec

        Total time for Split-RI-J                ...    0.009 sec
          (0) Prelude                            ...    0.000 sec
          (1) Hermite density                    ...    0.000 sec
          (2) Aux basis density                  ...    0.000 sec (inner=  0.0)
          (3) Linear equation solution           ...    0.000 sec
          (4) J-Matrix construction              ...    0.003 sec (inner=  0.0)
        ---------------------------------------------------------

                         ----------------------------
                         !        ITERATION    11   !
                         ----------------------------
   Total Energy        :   -1059.771260060509 Eh
   Energy Change       :      -0.000000349547 Eh
   MAX-DP              :       0.000836301459
   RMS-DP              :       0.000029921050
   Orbital gradient    :       0.000050821581
   Orbital Rotation    :       0.000116157326
   Actual Damping      :       0.0000
   Int. Num. El.       :    43.93377230 (UP=   21.96688615 DN=   21.96688615)
   Exchange            :   -48.75466577
   Correlation         :    -1.92382757

==>> SHARK/AuxDens: NDens=1 Thresh =     2.500000e-11 TCut=    2.500000e-12 Lmax=2 LmaxAux=4
    -> Making Hermite density - ok     0.000 sec
    -> Making Aux-basis density - (lmax=2)
    -> L=0 0:    0.001 sec done=      1351 ( 94.1%) skipped=        84 
    -> L=1 0:    0.001 sec done=      1679 ( 95.9%) skipped=        71 
    -> L=1 1:    0.001 sec done=       665 ( 95.0%) skipped=        35 
    -> L=2 0:    0.001 sec done=       828 ( 87.6%) skipped=       117 
    -> L=2 1:    0.001 sec done=       595 ( 94.4%) skipped=        35 
    -> L=2 2:    0.000 sec done=       210 (100.0%) skipped=         0 
    -> Aux basis density formed in    0.0 sec
    -> Solving linear equations - ok (   0.0 sec)
        Auxbasis Hermite Density:
        P|s>                     ...  0.000
        P|p>                     ...  0.000
        P|d>                     ...  0.000
        P|f>                     ...  0.000
        P|g>                     ...  0.000
        Building the Coulomb matrix: 
        J|ss>                          ... done (  0.0 sec) ndone=    14653 nskipped1=      218 nskipped2=      100
        J|ps>                          ... done (  0.0 sec) ndone=    16494 nskipped1=      353 nskipped2=       83
        J|pp>                          ... done (  0.0 sec) ndone=     7492 nskipped1=      155 nskipped2=       28
        J|ds>                          ... done (  0.0 sec) ndone=     3840 nskipped1=      243 nskipped2=        9
        J|dp>                          ... done (  0.0 sec) ndone=     2732 nskipped1=       75 nskipped2=        3
        J|dd>                          ... done (  0.0 sec) ndone=      360 nskipped1=        0 nskipped2=        0
        Coulomb matrix built in   0.0 sec

        Total time for Split-RI-J                ...    0.009 sec
          (0) Prelude                            ...    0.000 sec
          (1) Hermite density                    ...    0.000 sec
          (2) Aux basis density                  ...    0.000 sec (inner=  0.0)
          (3) Linear equation solution           ...    0.000 sec
          (4) J-Matrix construction              ...    0.003 sec (inner=  0.0)
        ---------------------------------------------------------

                         ----------------------------
                         !        ITERATION    12   !
                         ----------------------------
   Total Energy        :   -1059.771260058854 Eh
   Energy Change       :       0.000000001656 Eh
   MAX-DP              :       0.000479070544
   RMS-DP              :       0.000020160919
   Orbital gradient    :       0.000016147934
   Orbital Rotation    :       0.000070954774
   Actual Damping      :       0.0000
   Int. Num. El.       :    43.93378384 (UP=   21.96689192 DN=   21.96689192)
   Exchange            :   -48.75455424
   Correlation         :    -1.92382561

==>> SHARK/AuxDens: NDens=1 Thresh =     2.500000e-11 TCut=    2.500000e-12 Lmax=2 LmaxAux=4
    -> Making Hermite density - ok     0.000 sec
    -> Making Aux-basis density - (lmax=2)
    -> L=0 0:    0.001 sec done=      1330 ( 92.7%) skipped=       105 
    -> L=1 0:    0.002 sec done=      1660 ( 94.9%) skipped=        90 
    -> L=1 1:    0.001 sec done=       665 ( 95.0%) skipped=        35 
    -> L=2 0:    0.000 sec done=       811 ( 85.8%) skipped=       134 
    -> L=2 1:    0.001 sec done=       595 ( 94.4%) skipped=        35 
    -> L=2 2:    0.000 sec done=       210 (100.0%) skipped=         0 
    -> Aux basis density formed in    0.0 sec
    -> Solving linear equations - ok (   0.0 sec)
        Auxbasis Hermite Density:
        P|s>                     ...  0.000
        P|p>                     ...  0.000
        P|d>                     ...  0.000
        P|f>                     ...  0.000
        P|g>                     ...  0.000
        Building the Coulomb matrix: 
        J|ss>                          ... done (  0.0 sec) ndone=    14549 nskipped1=      307 nskipped2=       96
        J|ps>                          ... done (  0.0 sec) ndone=    16415 nskipped1=      417 nskipped2=       83
        J|pp>                          ... done (  0.0 sec) ndone=     7477 nskipped1=      170 nskipped2=       28
        J|ds>                          ... done (  0.0 sec) ndone=     3705 nskipped1=      330 nskipped2=        1
        J|dp>                          ... done (  0.0 sec) ndone=     2712 nskipped1=       95 nskipped2=        3
        J|dd>                          ... done (  0.0 sec) ndone=      360 nskipped1=        0 nskipped2=        0
        Coulomb matrix built in   0.0 sec

        Total time for Split-RI-J                ...    0.009 sec
          (0) Prelude                            ...    0.000 sec
          (1) Hermite density                    ...    0.000 sec
          (2) Aux basis density                  ...    0.000 sec (inner=  0.0)
          (3) Linear equation solution           ...    0.000 sec
          (4) J-Matrix construction              ...    0.003 sec (inner=  0.0)
        ---------------------------------------------------------

                         ----------------------------
                         !        ITERATION    13   !
                         ----------------------------
   Total Energy        :   -1059.771260061828 Eh
   Energy Change       :      -0.000000002974 Eh
   MAX-DP              :       0.000026298077
   RMS-DP              :       0.000001134828
   Orbital gradient    :       0.000003620075
   Orbital Rotation    :       0.000004436364
   Actual Damping      :       0.0000
   Int. Num. El.       :    43.93377901 (UP=   21.96688950 DN=   21.96688950)
   Exchange            :   -48.75458989
   Correlation         :    -1.92382635

==>> SHARK/AuxDens: NDens=1 Thresh =     2.500000e-11 TCut=    2.500000e-12 Lmax=2 LmaxAux=4
    -> Making Hermite density - ok     0.000 sec
    -> Making Aux-basis density - (lmax=2)
    -> L=0 0:    0.001 sec done=      1318 ( 91.8%) skipped=       117 
    -> L=1 0:    0.002 sec done=      1614 ( 92.2%) skipped=       136 
    -> L=1 1:    0.001 sec done=       664 ( 94.9%) skipped=        36 
    -> L=2 0:    0.001 sec done=       775 ( 82.0%) skipped=       170 
    -> L=2 1:    0.001 sec done=       594 ( 94.3%) skipped=        36 
    -> L=2 2:    0.000 sec done=       210 (100.0%) skipped=         0 
    -> Aux basis density formed in    0.0 sec
    -> Solving linear equations - ok (   0.0 sec)
        Auxbasis Hermite Density:
        P|s>                     ...  0.000
        P|p>                     ...  0.000
        P|d>                     ...  0.000
        P|f>                     ...  0.000
        P|g>                     ...  0.000
        Building the Coulomb matrix: 
        J|ss>                          ... done (  0.0 sec) ndone=    13996 nskipped1=      660 nskipped2=       19
        J|ps>                          ... done (  0.0 sec) ndone=    15806 nskipped1=      680 nskipped2=       56
        J|pp>                          ... done (  0.0 sec) ndone=     7403 nskipped1=      186 nskipped2=       20
        J|ds>                          ... done (  0.0 sec) ndone=     3248 nskipped1=      554 nskipped2=        1
        J|dp>                          ... done (  0.0 sec) ndone=     2560 nskipped1=      165 nskipped2=        0
        J|dd>                          ... done (  0.0 sec) ndone=      360 nskipped1=        0 nskipped2=        0
        Coulomb matrix built in   0.0 sec

        Total time for Split-RI-J                ...    0.010 sec
          (0) Prelude                            ...    0.000 sec
          (1) Hermite density                    ...    0.000 sec
          (2) Aux basis density                  ...    0.000 sec (inner=  0.0)
          (3) Linear equation solution           ...    0.000 sec
          (4) J-Matrix construction              ...    0.004 sec (inner=  0.0)
        ---------------------------------------------------------
                 **** Energy Check signals convergence ****
              ***Rediagonalizing the Fockian in SOSCF/NRSCF***

               *****************************************************
               *                     SUCCESS                       *
               *           SCF CONVERGED AFTER  14 CYCLES          *
               *****************************************************

Old exchange energy                            =    -12.285492153 Eh
New exchange energy                            =    -12.285378876 Eh
Exchange energy change after final integration =      0.000113277 Eh
Total energy after final integration           =  -1059.771146784 Eh
Final COS-X integration done in                =     0.509 sec

----------------
TOTAL SCF ENERGY
----------------

Total Energy       :        -1059.77114678 Eh          -28837.83899 eV

Components:
Nuclear Repulsion  :           60.95349111 Eh            1658.62882 eV
Electronic Energy  :        -1120.72463789 Eh          -30496.46781 eV
One Electron Energy:        -1631.21883099 Eh          -44387.72102 eV
Two Electron Energy:          510.49419310 Eh           13891.25321 eV
Max COSX asymmetry :            0.00001207 Eh               0.00033 eV
CPCM Dielectric    :           -4.03521314 Eh            -109.80373 eV

Virial components:
Potential Energy   :        -2119.90722425 Eh          -57685.60825 eV
Kinetic Energy     :         1060.13607747 Eh           28847.76926 eV
Virial Ratio       :            1.99965577


DFT components:
N(Alpha)           :       21.966889522670 electrons
N(Beta)            :       21.966889522670 electrons
N(Total)           :       43.933779045340 electrons
E(X)               :      -48.754586872689 Eh       
E(C)               :       -1.923826242370 Eh       
E(XC)              :      -50.678413115059 Eh       
DFET-embed. en.    :        0.000000000000 Eh       
CPCM Solvation Model Properties:
Surface-charge          :            7.28139005
Charge-correction       :           -0.39824049 Eh             -10.83667 eV
Free-energy (cav+disp)  :  This term is not implemented in the current solvation scheme

---------------
SCF CONVERGENCE
---------------

  Last Energy change         ...    8.8289e-10  Tolerance :   1.0000e-08
  Last MAX-Density change    ...    7.1054e-15  Tolerance :   1.0000e-07
  Last RMS-Density change    ...    3.5745e-16  Tolerance :   5.0000e-09
  Last Orbital Gradient      ...    6.8664e-07  Tolerance :   1.0000e-05
  Last Orbital Rotation      ...    1.7972e-06  Tolerance :   1.0000e-05

             **** THE GBW FILE WAS UPDATED (KCl_DFT.gbw) ****
             **** DENSITY KCl_DFT.scfp WAS UPDATED ****
             **** ENERGY FILE WAS UPDATED (KCl_DFT.en.tmp) ****
             **** THE GBW FILE WAS UPDATED (KCl_DFT.gbw) ****
             **** DENSITY KCl_DFT.scfp WAS UPDATED ****
----------------
ORBITAL ENERGIES
----------------

  NO   OCC          E(Eh)            E(eV) 
   0   2.0000    -129.318451     -3518.9339 
   1   2.0000    -101.249287     -2755.1332 
   2   2.0000     -12.776845      -347.6756 
   3   2.0000     -10.119951      -275.3779 
   4   2.0000     -10.119950      -275.3778 
   5   2.0000     -10.119370      -275.3620 
   6   2.0000      -9.201303      -250.3802 
   7   2.0000      -6.964278      -189.5076 
   8   2.0000      -6.964251      -189.5069 
   9   2.0000      -6.963809      -189.4949 
  10   2.0000      -1.002171       -27.2705 
  11   2.0000      -0.565048       -15.3757 
  12   2.0000      -0.378229       -10.2921 
  13   2.0000      -0.378206       -10.2915 
  14   2.0000      -0.377033       -10.2596 
  15   2.0000      -0.120316        -3.2740 
  16   2.0000      -0.120145        -3.2693 
  17   2.0000      -0.108166        -2.9434 
  18   2.0000      -0.026346        -0.7169 
  19   2.0000       0.056409         1.5350 
  20   2.0000       0.056552         1.5389 
  21   2.0000       0.071316         1.9406 
  22   0.0000       0.139917         3.8073 
  23   0.0000       0.297965         8.1080 
  24   0.0000       0.298026         8.1097 
  25   0.0000       0.319622         8.6974 
  26   0.0000       0.319842         8.7033 
  27   0.0000       0.375474        10.2172 
  28   0.0000       0.758670        20.6445 
  29   0.0000       0.829040        22.5593 
  30   0.0000       0.845453        23.0059 
  31   0.0000       0.845460        23.0061 
  32   0.0000       0.852854        23.2073 
  33   0.0000       0.852929        23.2094 
  34   0.0000       1.001728        27.2584 
  35   0.0000       1.001873        27.2623 
  36   0.0000       1.010530        27.4979 
  37   0.0000       1.010721        27.5031 
  38   0.0000       1.021719        27.8024 
  39   0.0000       1.112170        30.2637 
  40   0.0000       1.112307        30.2674 
  41   0.0000       1.208749        32.8917 

                    ********************************
                    * MULLIKEN POPULATION ANALYSIS *
                    ********************************

-----------------------
MULLIKEN ATOMIC CHARGES
-----------------------
   0 Cl:   -0.781828
   1 K :   -7.218172
Sum of atomic charges:   -8.0000000

--------------------------------
MULLIKEN REDUCED ORBITAL CHARGES
--------------------------------
  0 Cls       :     5.908515  s :     5.908515
      pz      :     3.965977  p :    11.870103
      px      :     3.943910
      py      :     3.960216
      dz2     :     0.000344  d :     0.003211
      dxz     :     0.000777
      dyz     :     0.000263
      dx2y2   :     0.000943
      dxy     :     0.000884
  1 K s       :     8.399284  s :     8.399284
      pz      :     5.991483  p :    17.753150
      px      :     5.816398
      py      :     5.945269
      dz2     :     0.004316  d :     0.065738
      dxz     :     0.020696
      dyz     :     0.007105
[...]
          (0) Prelude                            ...    0.000 sec
          (1) Hermite density                    ...    0.000 sec
          (2) Aux basis density                  ...    0.000 sec (inner=  0.0)
          (3) Linear equation solution           ...    0.000 sec
          (4) J-Matrix construction              ...    0.003 sec (inner=  0.0)
        ---------------------------------------------------------
                  ***Gradient check signals convergence***
              ***Rediagonalizing the Fockian in SOSCF/NRSCF***

               *****************************************************
               *                     SUCCESS                       *
               *           SCF CONVERGED AFTER   1 CYCLES          *
               *****************************************************

Old exchange energy                            =    -12.289075942 Eh
New exchange energy                            =    -12.289076707 Eh
Exchange energy change after final integration =     -0.000000764 Eh
Total energy after final integration           =  -1059.888731824 Eh
Final COS-X integration done in                =     1.411 sec

----------------
TOTAL SCF ENERGY
----------------

Total Energy       :        -1059.88873182 Eh          -28841.03864 eV

Components:
Nuclear Repulsion  :           24.02469246 Eh             653.74512 eV
Electronic Energy  :        -1083.91342428 Eh          -29494.78376 eV
One Electron Energy:        -1550.01844017 Eh          -42178.14605 eV
Two Electron Energy:          466.10501589 Eh           12683.36229 eV
Max COSX asymmetry :            0.00001352 Eh               0.00037 eV
CPCM Dielectric    :           -3.85144697 Eh            -104.80320 eV

Virial components:
Potential Energy   :        -2119.90003515 Eh          -57685.41263 eV
Kinetic Energy     :         1060.01130333 Eh           28844.37398 eV
Virial Ratio       :            1.99988437


DFT components:
N(Alpha)           :       21.988836697730 electrons
N(Beta)            :       21.988836697730 electrons
N(Total)           :       43.977673395461 electrons
E(X)               :      -48.763733794747 Eh       
E(C)               :       -1.916065083622 Eh       
E(XC)              :      -50.679798878369 Eh       
DFET-embed. en.    :        0.000000000000 Eh       
CPCM Solvation Model Properties:
Surface-charge          :            7.48176246
Charge-correction       :           -0.26677730 Eh              -7.25938 eV
Free-energy (cav+disp)  :  This term is not implemented in the current solvation scheme

---------------
SCF CONVERGENCE
---------------

  Last Energy change         ...   -5.0250e-11  Tolerance :   1.0000e-08
  Last MAX-Density change    ...    2.6645e-15  Tolerance :   1.0000e-07
  Last RMS-Density change    ...    1.8954e-16  Tolerance :   5.0000e-09
  Last Orbital Gradient      ...    9.8687e-07  Tolerance :   1.0000e-05
  Last Orbital Rotation      ...    1.9248e-06  Tolerance :   1.0000e-05

             **** THE GBW FILE WAS UPDATED (KCl_DFT.gbw) ****
             **** DENSITY KCl_DFT.scfp WAS UPDATED ****
             **** ENERGY FILE WAS UPDATED (KCl_DFT.en.tmp) ****
             **** THE GBW FILE WAS UPDATED (KCl_DFT.gbw) ****
             **** DENSITY KCl_DFT.scfp WAS UPDATED ****
----------------
ORBITAL ENERGIES
----------------

  NO   OCC          E(Eh)            E(eV) 
   0   2.0000    -129.354437     -3519.9132 
   1   2.0000    -101.311120     -2756.8157 
   2   2.0000     -12.815359      -348.7237 
   3   2.0000     -10.158482      -276.4264 
   4   2.0000     -10.158430      -276.4249 
   5   2.0000     -10.158430      -276.4249 
   6   2.0000      -9.262669      -252.0500 
   7   2.0000      -7.025807      -191.1819 
   8   2.0000      -7.025739      -191.1801 
   9   2.0000      -7.025736      -191.1800 
  10   2.0000      -1.037343       -28.2275 
  11   2.0000      -0.622244       -16.9321 
  12   2.0000      -0.412425       -11.2226 
  13   2.0000      -0.412424       -11.2226 
  14   2.0000      -0.412417       -11.2225 
  15   2.0000      -0.174972        -4.7612 
  16   2.0000      -0.174849        -4.7579 
  17   2.0000      -0.174822        -4.7572 
  18   2.0000      -0.040465        -1.1011 
  19   2.0000       0.036430         0.9913 
  20   2.0000       0.037020         1.0074 
  21   2.0000       0.037035         1.0078 
  22   0.0000       0.101848         2.7714 
  23   0.0000       0.280978         7.6458 
  24   0.0000       0.281114         7.6495 
  25   0.0000       0.281119         7.6496 
  26   0.0000       0.281157         7.6507 
  27   0.0000       0.281161         7.6508 
  28   0.0000       0.549146        14.9430 
  29   0.0000       0.817161        22.2361 
  30   0.0000       0.817228        22.2379 
  31   0.0000       0.817233        22.2380 
  32   0.0000       0.817234        22.2381 
  33   0.0000       0.817240        22.2382 
  34   0.0000       0.940170        25.5833 
  35   0.0000       0.940256        25.5857 
  36   0.0000       0.940324        25.5875 
  37   0.0000       0.940421        25.5902 
  38   0.0000       0.940447        25.5909 
  39   0.0000       0.995232        27.0816 
  40   0.0000       0.995272        27.0827 
  41   0.0000       0.996350        27.1121 

                    ********************************
                    * MULLIKEN POPULATION ANALYSIS *
                    ********************************

-----------------------
MULLIKEN ATOMIC CHARGES
-----------------------
   0 Cl:   -0.998680
   1 K :   -7.001320
Sum of atomic charges:   -8.0000000

--------------------------------
MULLIKEN REDUCED ORBITAL CHARGES
--------------------------------
  0 Cls       :     5.999641  s :     5.999641
      pz      :     3.999963  p :    11.999029
      px      :     3.999283
      py      :     3.999783
      dz2     :     0.000002  d :     0.000010
      dxz     :     0.000001
      dyz     :     0.000000
      dx2y2   :     0.000002
      dxy     :     0.000005
  1 K s       :     8.001644  s :     8.001644
      pz      :     5.999986  p :    17.999672
      px      :     5.999759
      py      :     5.999926
      dz2     :     0.000001  d :     0.000004
      dxz     :     0.000000
      dyz     :     0.000000
      dx2y2   :     0.000001
      dxy     :     0.000002

------------------------
MULLIKEN OVERLAP CHARGES
------------------------



                     *******************************
                     * LOEWDIN POPULATION ANALYSIS *
                     *******************************

----------------------
LOEWDIN ATOMIC CHARGES
----------------------
   0 Cl:   -0.999963
   1 K :   -7.000037

-------------------------------
LOEWDIN REDUCED ORBITAL CHARGES
-------------------------------
  0 Cls       :     6.000352  s :     6.000352
      pz      :     3.999985  p :    11.999599
      px      :     3.999703
      py      :     3.999910
      dz2     :     0.000002  d :     0.000012
      dxz     :     0.000001
      dyz     :     0.000000
      dx2y2   :     0.000002
      dxy     :     0.000006
  1 K s       :     8.000337  s :     8.000337
      pz      :     5.999987  p :    17.999697
      px      :     5.999778
      py      :     5.999932
      dz2     :     0.000001  d :     0.000004
      dxz     :     0.000000
      dyz     :     0.000000
      dx2y2   :     0.000001
      dxy     :     0.000002

---------------------------------
LOEWDIN BOND ORDERS (THRESH 0.050000)
---------------------------------


------------------------------------------
LOEWDIN REDUCED ORBITAL POPULATIONS PER MO
-------------------------------------------
THRESHOLD FOR PRINTING IS 0.1%
                      0         1         2         3         4         5   
                 -129.35444 -101.31112 -12.81536 -10.15848 -10.15843 -10.15843
                   2.00000   2.00000   2.00000   2.00000   2.00000   2.00000
                  --------  --------  --------  --------  --------  --------
 0 Cl s               0.0     100.0       0.0       0.0       0.0       0.0
 1 K  s             100.0       0.0     100.0       0.0       0.0       0.0
 1 K  pz              0.0       0.0       0.0       3.9      63.4      32.7
 1 K  px              0.0       0.0       0.0      73.8      17.8       8.4
 1 K  py              0.0       0.0       0.0      22.3      18.8      58.9

                      6         7         8         9        10        11   
                  -9.26267  -7.02581  -7.02574  -7.02574  -1.03734  -0.62224
                   2.00000   2.00000   2.00000   2.00000   2.00000   2.00000
                  --------  --------  --------  --------  --------  --------
 0 Cl s             100.0       0.0       0.0       0.0       0.0     100.0
 0 Cl pz              0.0       3.7      67.1      29.2       0.0       0.0
 0 Cl px              0.0      74.1       1.5      24.4       0.0       0.0
 0 Cl py              0.0      22.2      31.4      46.5       0.0       0.0
 1 K  s               0.0       0.0       0.0       0.0     100.0       0.0

                     12        13        14        15        16        17   
                  -0.41242  -0.41242  -0.41242  -0.17497  -0.17485  -0.17482
                   2.00000   2.00000   2.00000   2.00000   2.00000   2.00000
                  --------  --------  --------  --------  --------  --------
 0 Cl pz              0.0       0.0       0.0       3.9      38.1      58.0
 0 Cl px              0.0       0.0       0.0      73.5      23.4       2.9
 0 Cl py              0.0       0.0       0.0      22.4      38.5      39.1
 1 K  s               0.0       0.0       0.0       0.2       0.0       0.0
 1 K  pz             67.3      30.7       2.0       0.0       0.0       0.0
 1 K  px             16.3      14.8      68.9       0.0       0.0       0.0
 1 K  py             16.4      54.5      29.1       0.0       0.0       0.0

                     18        19        20        21        22        23   
                  -0.04047   0.03643   0.03702   0.03703   0.10185   0.28098
                   2.00000   2.00000   2.00000   2.00000   0.00000   0.00000
                  --------  --------  --------  --------  --------  --------
 0 Cl s               0.0       0.0       0.0       0.0       0.2       0.0
 0 Cl px              0.1       0.0       0.0       0.0       0.0       0.0
 1 K  s              99.8       0.0       0.0       0.0      99.8       0.0
 1 K  pz              0.0       3.9      32.8      63.3       0.0       0.0
 1 K  px              0.0      73.9       8.3      17.7       0.0       0.0
 1 K  py              0.0      22.2      58.8      19.0       0.0       0.0
 1 K  dz2             0.0       0.0       0.0       0.0       0.0      20.7
 1 K  dxz             0.0       0.0       0.0       0.0       0.0       8.4
 1 K  dyz             0.0       0.0       0.0       0.0       0.0       2.4
 1 K  dx2y2           0.0       0.0       0.0       0.0       0.0      20.6
 1 K  dxy             0.0       0.0       0.0       0.0       0.0      47.9

                     24        25        26        27        28        29   
                   0.28111   0.28112   0.28116   0.28116   0.54915   0.81716
                   0.00000   0.00000   0.00000   0.00000   0.00000   0.00000
                  --------  --------  --------  --------  --------  --------
 0 Cl s               0.0       0.0       0.0       0.0      99.8       0.0
 1 K  s               0.0       0.0       0.0       0.0       0.2       0.0
 1 K  dz2            61.3       8.2       2.4       7.5       0.0      19.4
 1 K  dxz             9.3      19.3       6.2      56.8       0.0       7.5
 1 K  dyz             3.6      67.7      11.5      14.8       0.0       3.3
 1 K  dx2y2          12.0       0.2      61.1       6.1       0.0      21.0
 1 K  dxy            13.8       4.7      18.9      14.7       0.0      48.9

                     30        31        32        33        34        35   
                   0.81723   0.81723   0.81723   0.81724   0.94017   0.94026
                   0.00000   0.00000   0.00000   0.00000   0.00000   0.00000
                  --------  --------  --------  --------  --------  --------
 0 Cl dz2             0.0       0.0       0.0       0.0      11.1       8.5
 0 Cl dxz             0.0       0.0       0.0       0.0      15.1       3.8
 0 Cl dyz             0.0       0.0       0.0       0.0      16.4      79.7
 0 Cl dx2y2           0.0       0.0       0.0       0.0      43.0       7.9
 0 Cl dxy             0.0       0.0       0.0       0.0      14.4       0.0
 1 K  dz2            11.5      68.9       0.1       0.1       0.0       0.0
 1 K  dxz            32.4       0.3       0.2      59.6       0.0       0.0
 1 K  dyz            20.5       0.6      62.8      12.8       0.0       0.0
 1 K  dx2y2          30.1      24.4      15.5       9.0       0.0       0.0
 1 K  dxy             5.4       5.8      21.5      18.4       0.0       0.0

                     36        37        38        39        40        41   
                   0.94032   0.94042   0.94045   0.99523   0.99527   0.99635
                   0.00000   0.00000   0.00000   0.00000   0.00000   0.00000
                  --------  --------  --------  --------  --------  --------
 0 Cl pz              0.0       0.0       0.0      81.6      14.6       3.8
 0 Cl px              0.0       0.0       0.0       0.1      27.2      72.6
 0 Cl py              0.0       0.0       0.0      18.3      58.2      23.5
 0 Cl dz2            59.1       0.3      21.0       0.0       0.0       0.0
 0 Cl dxz            11.2      69.5       0.3       0.0       0.0       0.0
 0 Cl dyz             0.2       0.1       3.6       0.0       0.0       0.0
 0 Cl dx2y2          17.6      30.1       1.3       0.0       0.0       0.0
 0 Cl dxy            11.8       0.0      73.8       0.0       0.0       0.0



                      *****************************
                      * MAYER POPULATION ANALYSIS *
                      *****************************

  NA   - Mulliken gross atomic population
  ZA   - Total nuclear charge
  QA   - Mulliken gross atomic charge
  VA   - Mayer's total valence
  BVA  - Mayer's bonded valence
  FA   - Mayer's free valence

  ATOM       NA         ZA         QA         VA         BVA        FA
  0 Cl    17.9987    17.0000    -0.9987     0.0025     0.0025    -0.0000
  1 K     26.0013    19.0000    -7.0013     0.0025     0.0025    -0.0000

  Mayer bond orders larger than 0.100000


-------
TIMINGS
-------

Total SCF time: 0 days 0 hours 0 min 5 sec 

Total time                  ....       5.790 sec
Sum of individual times     ....       5.304 sec  ( 91.6%)

Fock matrix formation       ....       4.009 sec  ( 69.2%)
  Split-RI-J                ....       0.409 sec  ( 10.2% of F)
  Chain of spheres X        ....       2.615 sec  ( 65.2% of F)
  XC integration            ....       0.514 sec  ( 12.8% of F)
    Basis function eval.    ....       0.197 sec  ( 38.4% of XC)
    Density eval.           ....       0.100 sec  ( 19.4% of XC)
    XC-Functional eval.     ....       0.181 sec  ( 35.2% of XC)
    XC-Potential eval.      ....       0.012 sec  (  2.3% of XC)
Diagonalization             ....       0.001 sec  (  0.0%)
Density matrix formation    ....       0.000 sec  (  0.0%)
Population analysis         ....       0.090 sec  (  1.6%)
Initial guess               ....       0.002 sec  (  0.0%)
Orbital Transformation      ....       0.000 sec  (  0.0%)
Orbital Orthonormalization  ....       0.000 sec  (  0.0%)
DIIS solution               ....       0.000 sec  (  0.0%)
SOSCF solution              ....       0.001 sec  (  0.0%)
Grid generation             ....       1.201 sec  ( 20.7%)

Maximum memory used throughout the entire SCF-calculation: 45.6 MB

-------------------------   --------------------
FINAL SINGLE POINT ENERGY     -1059.888731824034
-------------------------   --------------------

                                *** OPTIMIZATION RUN DONE ***

                            ***************************************
                            *     ORCA property calculations      *
                            ***************************************

                                    ---------------------
                                    Active property flags
                                    ---------------------
   (+) Dipole Moment


------------------------------------------------------------------------------
                       ORCA ELECTRIC PROPERTIES CALCULATION
------------------------------------------------------------------------------

Dipole Moment Calculation                       ... on
Quadrupole Moment Calculation                   ... off
Polarizability Calculation                      ... off
GBWName                                         ... KCl_DFT.gbw
Electron density                                ... KCl_DFT.scfp
SHARK General Contraction Test:  Segmented basis detected
   -> Pre-screening matrix found on disk - Trying to read with NShells=18
   -> Passing Pre-screening matrix on to SHARK ...ok
   -> Leaving CheckPreScreeningMatrix
----------------------
SHARK INTEGRAL PACKAGE
----------------------

Number of atoms                             ...      2
Number of basis functions                   ...     42
Number of shells                            ...     18
Maximum angular momentum                    ...      2
Integral batch strategy                     ... SHARK/LIBINT Hybrid
RI-J (if used) integral strategy            ... SPLIT-RIJ (Revised 2003 algorithm where possible)
Printlevel                                  ...      2
Contraction scheme used                     ... SEGMENTED contraction
Coulomb Range Separation                    ... NOT USED
Exchange Range Separation                   ... NOT USED
Finite Nucleus Model                        ... NOT USED
Auxiliary Coulomb fitting basis             ... AVAILABLE
   # of basis functions in Aux-J            ...    107
   # of shells in Aux-J                     ...     35
   Maximum angular momentum in Aux-J        ...      4
Auxiliary J/K fitting basis                 ... NOT available
Auxiliary Correlation fitting basis         ... NOT available
Auxiliary 'external' fitting basis          ... NOT available
Integral threshold                          ...     2.500000e-11
Primitive cut-off                           ...     2.500000e-12
Primitive pair pre-selection threshold      ...     2.500000e-12

The origin for moment calculation is the CENTER OF MASS  = ( 2.164665, -0.217791 -0.051912)

-------------
DIPOLE MOMENT
-------------
                                X             Y             Z
Electronic contribution:    -33.81712      18.60115      -7.76438
Nuclear contribution   :      1.37974      -0.75893       0.31678
                        -----------------------------------------
Total Dipole Moment    :    -32.43738      17.84222      -7.44760
                        -----------------------------------------
Magnitude (a.u.)       :     37.76235
Magnitude (Debye)      :     95.98425



--------------------
Rotational spectrum 
--------------------
 
Rotational constants in cm-1:     0.000000     0.017912     0.017912 
Rotational constants in MHz :     0.000000   536.984002   536.984002 

 Dipole components along the rotational axes: 
x,y,z [a.u.] :    37.762345     0.000080    -0.000077 
x,y,z [Debye]:    95.984253     0.000203    -0.000196 

 

Timings for individual modules:

Sum of individual times         ...      429.164 sec (=   7.153 min)
GTO integral calculation        ...       15.125 sec (=   0.252 min)   3.5 %
SCF iterations                  ...      317.269 sec (=   5.288 min)  73.9 %
SCF Gradient evaluation         ...       93.690 sec (=   1.561 min)  21.8 %
Geometry relaxation             ...        3.080 sec (=   0.051 min)   0.7 %
                             ****ORCA TERMINATED NORMALLY****
TOTAL RUN TIME: 0 days 0 hours 7 minutes 21 seconds 384 msec
