
                                 *****************
                                 * O   R   C   A *
                                 *****************

                                            #,                                       
                                            ###                                      
                                            ####                                     
                                            #####                                    
                                            ######                                   
                                           ########,                                 
                                     ,,################,,,,,                         
                               ,,#################################,,                 
                          ,,##########################################,,             
                       ,#########################################, ''#####,          
                    ,#############################################,,   '####,        
                  ,##################################################,,,,####,       
                ,###########''''           ''''###############################       
              ,#####''   ,,,,##########,,,,          '''####'''          '####       
            ,##' ,,,,###########################,,,                        '##       
           ' ,,###''''                  '''############,,,                           
         ,,##''                                '''############,,,,        ,,,,,,###''
      ,#''                                            '''#######################'''  
     '                                                          ''''####''''         
             ,#######,   #######,   ,#######,      ##                                
            ,#'     '#,  ##    ##  ,#'     '#,    #''#        ######   ,####,        
            ##       ##  ##   ,#'  ##            #'  '#       #        #'  '#        
            ##       ##  #######   ##           ,######,      #####,   #    #        
            '#,     ,#'  ##    ##  '#,     ,#' ,#      #,         ##   #,  ,#        
             '#######'   ##     ##  '#######'  #'      '#     #####' # '####'        



                  #######################################################
                  #                        -***-                        #
                  #          Department of theory and spectroscopy      #
                  #    Directorship and core code : Frank Neese         #
                  #        Max Planck Institute fuer Kohlenforschung    #
                  #                Kaiser Wilhelm Platz 1               #
                  #                 D-45470 Muelheim/Ruhr               #
                  #                      Germany                        #
                  #                                                     #
                  #                  All rights reserved                #
                  #                        -***-                        #
                  #######################################################


                         Program Version 5.0.4 -  RELEASE  -


 With contributions from (in alphabetic order):
   Daniel Aravena         : Magnetic Suceptibility
   Michael Atanasov       : Ab Initio Ligand Field Theory (pilot matlab implementation)
   Alexander A. Auer      : GIAO ZORA, VPT2 properties, NMR spectrum
   Ute Becker             : Parallelization
   Giovanni Bistoni       : ED, misc. LED, open-shell LED, HFLD
   Martin Brehm           : Molecular dynamics
   Dmytro Bykov           : SCF Hessian
   Vijay G. Chilkuri      : MRCI spin determinant printing, contributions to CSF-ICE
   Dipayan Datta          : RHF DLPNO-CCSD density
   Achintya Kumar Dutta   : EOM-CC, STEOM-CC
   Dmitry Ganyushin       : Spin-Orbit,Spin-Spin,Magnetic field MRCI
   Miquel Garcia          : C-PCM and meta-GGA Hessian, CC/C-PCM, Gaussian charge scheme
   Yang Guo               : DLPNO-NEVPT2, F12-NEVPT2, CIM, IAO-localization
   Andreas Hansen         : Spin unrestricted coupled pair/coupled cluster methods
   Benjamin Helmich-Paris : MC-RPA, TRAH-SCF, COSX integrals
   Lee Huntington         : MR-EOM, pCC
   Robert Izsak           : Overlap fitted RIJCOSX, COSX-SCS-MP3, EOM
   Marcus Kettner         : VPT2
   Christian Kollmar      : KDIIS, OOCD, Brueckner-CCSD(T), CCSD density, CASPT2, CASPT2-K
   Simone Kossmann        : Meta GGA functionals, TD-DFT gradient, OOMP2, MP2 Hessian
   Martin Krupicka        : Initial AUTO-CI
   Lucas Lang             : DCDCAS
   Marvin Lechner         : AUTO-CI (C++ implementation), FIC-MRCC
   Dagmar Lenk            : GEPOL surface, SMD
   Dimitrios Liakos       : Extrapolation schemes; Compound Job, initial MDCI parallelization
   Dimitrios Manganas     : Further ROCIS development; embedding schemes
   Dimitrios Pantazis     : SARC Basis sets
   Anastasios Papadopoulos: AUTO-CI, single reference methods and gradients
   Taras Petrenko         : DFT Hessian,TD-DFT gradient, ASA, ECA, R-Raman, ABS, FL, XAS/XES, NRVS
   Peter Pinski           : DLPNO-MP2, DLPNO-MP2 Gradient
   Christoph Reimann      : Effective Core Potentials
   Marius Retegan         : Local ZFS, SOC
   Christoph Riplinger    : Optimizer, TS searches, QM/MM, DLPNO-CCSD(T), (RO)-DLPNO pert. Triples
   Tobias Risthaus        : Range-separated hybrids, TD-DFT gradient, RPA, STAB
   Michael Roemelt        : Original ROCIS implementation
   Masaaki Saitow         : Open-shell DLPNO-CCSD energy and density
   Barbara Sandhoefer     : DKH picture change effects
   Avijit Sen             : IP-ROCIS
   Kantharuban Sivalingam : CASSCF convergence, NEVPT2, FIC-MRCI
   Bernardo de Souza      : ESD, SOC TD-DFT
   Georgi Stoychev        : AutoAux, RI-MP2 NMR, DLPNO-MP2 response
   Willem Van den Heuvel  : Paramagnetic NMR
   Boris Wezisla          : Elementary symmetry handling
   Frank Wennmohs         : Technical directorship


 We gratefully acknowledge several colleagues who have allowed us to
 interface, adapt or use parts of their codes:
   Stefan Grimme, W. Hujo, H. Kruse, P. Pracht,  : VdW corrections, initial TS optimization,
                  C. Bannwarth, S. Ehlert          DFT functionals, gCP, sTDA/sTD-DF
   Ed Valeev, F. Pavosevic, A. Kumar             : LibInt (2-el integral package), F12 methods
   Garnet Chan, S. Sharma, J. Yang, R. Olivares  : DMRG
   Ulf Ekstrom                                   : XCFun DFT Library
   Mihaly Kallay                                 : mrcc  (arbitrary order and MRCC methods)
   Jiri Pittner, Ondrej Demel                    : Mk-CCSD
   Frank Weinhold                                : gennbo (NPA and NBO analysis)
   Christopher J. Cramer and Donald G. Truhlar   : smd solvation model
   Lars Goerigk                                  : TD-DFT with DH, B97 family of functionals
   V. Asgeirsson, H. Jonsson                     : NEB implementation
   FAccTs GmbH                                   : IRC, NEB, NEB-TS, DLPNO-Multilevel, CI-OPT
                                                   MM, QMMM, 2- and 3-layer-ONIOM, Crystal-QMMM,
                                                   LR-CPCM, SF, NACMEs, symmetry and pop. for TD-DFT,
                                                   nearIR, NL-DFT gradient (VV10), updates on ESD,
                                                   ML-optimized integration grids
   S Lehtola, MJT Oliveira, MAL Marques          : LibXC Library
   Liviu Ungur et al                             : ANISO software


 Your calculation uses the libint2 library for the computation of 2-el integrals
 For citations please refer to: http://libint.valeyev.net

 Your ORCA version has been built with support for libXC version: 5.1.0
 For citations please refer to: https://tddft.org/programs/libxc/

 This ORCA versions uses:
   CBLAS   interface :  Fast vector & matrix operations
   LAPACKE interface :  Fast linear algebra routines
   SCALAPACK package :  Parallel linear algebra routines
   Shared memory     :  Shared parallel matrices
   BLAS/LAPACK       :  OpenBLAS 0.3.15  USE64BITINT DYNAMIC_ARCH NO_AFFINITY SkylakeX SINGLE_THREADED
        Core in use  :  SkylakeX
   Copyright (c) 2011-2014, The OpenBLAS Project


================================================================================

----- Orbital basis set information -----
Your calculation utilizes the basis: def2-SVP
   F. Weigend and R. Ahlrichs, Phys. Chem. Chem. Phys. 7, 3297 (2005).

----- AuxJ basis set information -----
Your calculation utilizes the auxiliary basis: def2/J
   F. Weigend, Phys. Chem. Chem. Phys. 8, 1057 (2006).

================================================================================
                                        WARNINGS
                       Please study these warnings very carefully!
================================================================================


WARNING: Geometry Optimization
  ===> : Switching off AutoStart
         For restart on a previous wavefunction, please use MOREAD

INFO   : the flag for use of the SHARK integral package has been found!

================================================================================
                                       INPUT FILE
================================================================================
NAME = NaAlO2_DFT.inp
|  1> ## avogadro generated ORCA input file 
|  2> # Advanced Mode
|  3> # 
|  4> ! B3LYP OPT def2-SVP NormalPrint defgrid2 NormalSCF 
|  5> 
|  6> ! CPCM
|  7> %cpcm
|  8> epsilon 69.0
|  9> refrac 1.34
| 10> end
| 11> 
| 12> %scf
| 13> 	MaxIter 125
| 14> 	CNVDIIS 1
| 15> 	CNVSOSCF 1 
| 16> end
| 17> 
| 18> * xyz -9 1
| 19>    O        1.42950        1.52917       -0.23411
| 20>   Al        3.00447        1.29892        0.15508
| 21>    O        3.10965        0.24469        1.40509
| 22>   Na        0.86215       -1.64443        0.04450
| 23>    H        3.78350        0.70698       -1.10726
| 24> *
| 25> 
| 26> 
| 27>                          ****END OF INPUT****
================================================================================

                       *****************************
                       * Geometry Optimization Run *
                       *****************************

Geometry optimization settings:
Update method            Update   .... BFGS
Choice of coordinates    CoordSys .... Z-matrix Internals
Initial Hessian          InHess   .... Almoef's Model

Convergence Tolerances:
Energy Change            TolE     ....  5.0000e-06 Eh
Max. Gradient            TolMAXG  ....  3.0000e-04 Eh/bohr
RMS Gradient             TolRMSG  ....  1.0000e-04 Eh/bohr
Max. Displacement        TolMAXD  ....  4.0000e-03 bohr
RMS Displacement         TolRMSD  ....  2.0000e-03 bohr
Strict Convergence                ....  False
------------------------------------------------------------------------------
                        ORCA OPTIMIZATION COORDINATE SETUP
------------------------------------------------------------------------------

The optimization will be done in new redundant internal coordinates
Making redundant internal coordinates   ...  (new redundants) done
Evaluating the initial hessian          ...  (Almloef) done
Evaluating the coordinates              ...  done
Calculating the B-matrix                .... done
Calculating the G-matrix                .... done
Diagonalizing the G-matrix              .... done
The first mode is                       ....   19
The number of degrees of freedom        ....    9

    -----------------------------------------------------------------
                    Redundant Internal Coordinates


    -----------------------------------------------------------------
         Definition                    Initial Value    Approx d2E/dq
    -----------------------------------------------------------------
      1. B(Al  1,O   0)                  1.6386         1.573363   
      2. B(O   2,Al  1)                  1.6386         1.573409   
      3. B(Na  3,O   2)                  3.2359         0.009279   
      4. B(Na  3,Al  1)                  3.6421         0.016326   
      5. B(Na  3,O   0)                  3.2359         0.009279   
      6. B(H   4,Na  3)                  3.9230         0.000159   
      7. B(H   4,Al  1)                  1.5971         0.391680   
      8. A(Al  1,O   0,Na  3)           90.5879         0.305784   
      9. A(O   2,Al  1,H   4)          109.4623         0.530390   
     10. A(O   0,Al  1,Na  3)           62.6762         0.359564   
     11. A(O   0,Al  1,O   2)          109.4686         0.755125   
     12. A(O   2,Al  1,Na  3)           62.6761         0.359565   
     13. A(Na  3,Al  1,H   4)           87.9021         0.268282   
     14. A(O   0,Al  1,H   4)          109.4621         0.530387   
     15. A(Al  1,O   2,Na  3)           90.5881         0.305786   
     16. A(Al  1,Na  3,O   2)           26.7358         0.177053   
     17. A(O   0,Na  3,O   2)           48.8432         0.159551   
     18. A(O   0,Na  3,Al  1)           26.7359         0.177053   
     19. D(H   4,Al  1,O   0,Na  3)     76.9219         0.018132   
     20. D(O   2,Al  1,O   0,Na  3)    -43.0599         0.018132   
     21. D(Na  3,O   2,Al  1,O   0)     43.0600         0.018133   
     22. D(Na  3,O   2,Al  1,H   4)    -76.9218         0.018133   
     23. D(O   0,Na  3,Al  1,O   2)    133.5670         0.001500   
     24. D(O   0,Na  3,Al  1,H   4)   -113.2164         0.001500   
     25. D(O   2,Na  3,O   0,Al  1)     25.6544         0.001500   
     26. D(O   2,Na  3,Al  1,H   4)    113.2166         0.001500   
     27. D(O   0,Na  3,O   2,Al  1)    -25.6545         0.001500   
     28. D(O   2,Na  3,Al  1,O   0)   -133.5670         0.001500   
    -----------------------------------------------------------------

Number of atoms                         .... 5
Number of degrees of freedom            .... 28

         *************************************************************
         *                GEOMETRY OPTIMIZATION CYCLE   1            *
         *************************************************************
---------------------------------
CARTESIAN COORDINATES (ANGSTROEM)
---------------------------------
  O      1.429500    1.529170   -0.234110
  Al     3.004470    1.298920    0.155080
  O      3.109650    0.244690    1.405090
  Na     0.862150   -1.644430    0.044500
  H      3.783500    0.706980   -1.107260

----------------------------
CARTESIAN COORDINATES (A.U.)
----------------------------
  NO LB      ZA    FRAG     MASS         X           Y           Z
   0 O     8.0000    0    15.999    2.701364    2.889713   -0.442404
   1 Al   13.0000    0    26.982    5.677625    2.454603    0.293059
   2 O     8.0000    0    15.999    5.876387    0.462397    2.655235
   3 Na   11.0000    0    22.990    1.629227   -3.107522    0.084093
   4 H     1.0000    0     1.008    7.149779    1.335999   -2.092418

--------------------------------
INTERNAL COORDINATES (ANGSTROEM)
--------------------------------
 O      0   0   0     0.000000000000     0.00000000     0.00000000
 Al     1   0   0     1.638601360765     0.00000000     0.00000000
 O      2   1   0     1.638593520492   109.46856505     0.00000000
 Na     3   2   1     3.235928888666    90.58809717    43.05997507
 H      2   1   3     1.597117084030   109.46209217   119.98187893

---------------------------
INTERNAL COORDINATES (A.U.)
---------------------------
 O      0   0   0     0.000000000000     0.00000000     0.00000000
 Al     1   0   0     3.096507814516     0.00000000     0.00000000
 O      2   1   0     3.096492998549   109.46856505     0.00000000
 Na     3   2   1     6.115019388422    90.58809717    43.05997507
 H      2   1   3     3.018113892623   109.46209217   119.98187893

---------------------
BASIS SET INFORMATION
---------------------
There are 4 groups of distinct atoms

 Group   1 Type O   : 7s4p1d contracted to 3s2p1d pattern {511/31/1}
 Group   2 Type Al  : 10s7p1d contracted to 4s3p1d pattern {5311/511/1}
 Group   3 Type Na  : 10s6p1d contracted to 4s2p1d pattern {5311/51/1}
 Group   4 Type H   : 4s1p contracted to 2s1p pattern {31/1}

Atom   0O    basis set group =>   1
Atom   1Al   basis set group =>   2
Atom   2O    basis set group =>   1
Atom   3Na   basis set group =>   3
Atom   4H    basis set group =>   4
---------------------------------
AUXILIARY/J BASIS SET INFORMATION
---------------------------------
There are 4 groups of distinct atoms

 Group   1 Type O   : 12s5p4d2f1g contracted to 6s4p3d1f1g pattern {711111/2111/211/2/1}
 Group   2 Type Al  : 14s5p5d2f1g contracted to 8s4p3d1f1g pattern {71111111/2111/311/2/1}
 Group   3 Type Na  : 14s5p5d2f1g contracted to 8s4p4d1f1g pattern {71111111/2111/2111/2/1}
 Group   4 Type H   : 5s2p1d contracted to 3s1p1d pattern {311/2/1}

Atom   0O    basis set group =>   1
Atom   1Al   basis set group =>   2
Atom   2O    basis set group =>   1
Atom   3Na   basis set group =>   3
Atom   4H    basis set group =>   4
------------------------------------------------------------------------------
                           ORCA GTO INTEGRAL CALCULATION
                           -- RI-GTO INTEGRALS CHOSEN --
------------------------------------------------------------------------------
------------------------------------------------------------------------------
                   ___                                                        
                  /   \      - P O W E R E D   B Y -                         
                 /     \                                                     
                 |  |  |   _    _      __       _____    __    __             
                 |  |  |  | |  | |    /  \     |  _  \  |  |  /  |          
                  \  \/   | |  | |   /    \    | | | |  |  | /  /          
                 / \  \   | |__| |  /  /\  \   | |_| |  |  |/  /          
                |  |  |   |  __  | /  /__\  \  |    /   |      \           
                |  |  |   | |  | | |   __   |  |    \   |  |\   \          
                \     /   | |  | | |  |  |  |  | |\  \  |  | \   \       
                 \___/    |_|  |_| |__|  |__|  |_| \__\ |__|  \__/        
                                                                              
                      - O R C A' S   B I G   F R I E N D -                    
                                      &                                       
                       - I N T E G R A L  F E E D E R -                       
                                                                              
 v1 FN, 2020, v2 2021                                                         
------------------------------------------------------------------------------


Reading SHARK input file NaAlO2_DFT.SHARKINP.tmp ... SHARK General Contraction Test:  Segmented basis detected
   -> Pre-screening matrix *NOT* found on disk - recalculating with NShells=30
   -> Leaving CheckPreScreeningMatrix
ok
----------------------
SHARK INTEGRAL PACKAGE
----------------------

Number of atoms                             ...      5
Number of basis functions                   ...     66
Number of shells                            ...     30
Maximum angular momentum                    ...      2
Integral batch strategy                     ... SHARK/LIBINT Hybrid
RI-J (if used) integral strategy            ... SPLIT-RIJ (Revised 2003 algorithm where possible)
Printlevel                                  ...      2
Contraction scheme used                     ... SEGMENTED contraction
Coulomb Range Separation                    ... NOT USED
Exchange Range Separation                   ... NOT USED
Finite Nucleus Model                        ... NOT USED
Auxiliary Coulomb fitting basis             ... AVAILABLE
   # of basis functions in Aux-J            ...    216
   # of shells in Aux-J                     ...     70
   Maximum angular momentum in Aux-J        ...      4
Auxiliary J/K fitting basis                 ... NOT available
Auxiliary Correlation fitting basis         ... NOT available
Auxiliary 'external' fitting basis          ... NOT available
Integral threshold                          ...     2.500000e-11
Primitive cut-off                           ...     2.500000e-12
Primitive pair pre-selection threshold      ...     2.500000e-12

Calculating pre-screening integrals         ... done (  0.0 sec) Dimension = 30
Organizing shell pair data                  ... done (  0.0 sec)
Shell pair information
Total number of shell pairs                 ...       465
Shell pairs after pre-screening             ...       449
Total number of primitive shell pairs       ...      2155
Primitive shell pairs kept                  ...      1552
          la=0 lb=0:    126 shell pairs
          la=1 lb=0:    156 shell pairs
          la=1 lb=1:     55 shell pairs
          la=2 lb=0:     62 shell pairs
          la=2 lb=1:     40 shell pairs
          la=2 lb=2:     10 shell pairs

Calculating one electron integrals          ... done (  0.0 sec)
Calculating RI/J V-Matrix + Cholesky decomp.... done (  0.1 sec)
Calculating Nuclear repulsion               ... done (  0.0 sec) ENN=    138.384130450241 Eh

SHARK setup successfully completed in   0.6 seconds

Maximum memory used throughout the entire GTOINT-calculation: 9.2 MB
-------------------------------------------------------------------------------
                                 ORCA SCF
-------------------------------------------------------------------------------

------------
SCF SETTINGS
------------
Hamiltonian:
 Density Functional     Method          .... DFT(GTOs)
 Exchange Functional    Exchange        .... B88
   X-Alpha parameter    XAlpha          ....  0.666667
   Becke's b parameter  XBeta           ....  0.004200
 Correlation Functional Correlation     .... LYP
 LDA part of GGA corr.  LDAOpt          .... VWN-5
 Gradients option       PostSCFGGA      .... off
 Hybrid DFT is turned on
   Fraction HF Exchange ScalHFX         ....  0.200000
   Scaling of DF-GGA-X  ScalDFX         ....  0.720000
   Scaling of DF-GGA-C  ScalDFC         ....  0.810000
   Scaling of DF-LDA-C  ScalLDAC        ....  1.000000
   Perturbative correction              ....  0.000000
   Density functional embedding theory  .... OFF
   NL short-range parameter             ....  4.800000
 RI-approximation to the Coulomb term is turned on
   Number of AuxJ basis functions       .... 216
   RIJ-COSX (HFX calculated with COS-X)).... on


General Settings:
 Integral files         IntName         .... NaAlO2_DFT
 Hartree-Fock type      HFTyp           .... RHF
 Total Charge           Charge          ....   -9
 Multiplicity           Mult            ....    1
 Number of Electrons    NEL             ....   50
 Basis Dimension        Dim             ....   66
 Nuclear Repulsion      ENuc            ....    138.3841304502 Eh

Convergence Acceleration:
 DIIS                   CNVDIIS         .... on
   Start iteration      DIISMaxIt       ....    12
   Startup error        DIISStart       ....  0.200000
   # of expansion vecs  DIISMaxEq       ....     5
   Bias factor          DIISBfac        ....   1.050
   Max. coefficient     DIISMaxC        ....  10.000
 Trust-Rad. Augm. Hess. CNVTRAH         .... auto
   Auto Start mean grad. ratio tolernc. ....  1.125000
   Auto Start start iteration           ....    20
   Auto Start num. interpolation iter.  ....    10
   Max. Number of Micro iterations      ....    16
   Max. Number of Macro iterations      .... Maxiter - #DIIS iter
   Number of Davidson start vectors     ....     2
   Converg. threshold I  (grad. norm)   ....   1.000e-05
   Converg. threshold II (energy diff.) ....   1.000e-08
   Grad. Scal. Fac. for Micro threshold ....   0.100
   Minimum threshold for Micro iter.    ....   0.010
   NR start threshold (gradient norm)   ....   0.001
   Initial trust radius                 ....   0.400
   Minimum AH scaling param. (alpha)    ....   1.000
   Maximum AH scaling param. (alpha)    .... 1000.000
   Orbital update algorithm             .... Taylor
   White noise on init. David. guess    .... on
   Maximum white noise                  ....   0.010
   Quad. conv. algorithm                .... NR
 SOSCF                  CNVSOSCF        .... on
   Start iteration      SOSCFMaxIt      ....   150
   Startup grad/error   SOSCFStart      ....  0.003300
 Level Shifting         CNVShift        .... on
   Level shift para.    LevelShift      ....    0.2500
   Turn off err/grad.   ShiftErr        ....    0.0010
 Zerner damping         CNVZerner       .... off
 Static damping         CNVDamp         .... on
   Fraction old density DampFac         ....    0.7000
   Max. Damping (<1)    DampMax         ....    0.9800
   Min. Damping (>=0)   DampMin         ....    0.0000
   Turn off err/grad.   DampErr         ....    0.1000
 Fernandez-Rico         CNVRico         .... off

SCF Procedure:
 Maximum # iterations   MaxIter         ....   125
 SCF integral mode      SCFMode         .... Direct
   Integral package                     .... SHARK and LIBINT hybrid scheme
 Reset frequency        DirectResetFreq ....    20
 Integral Threshold     Thresh          ....  2.500e-11 Eh
 Primitive CutOff       TCut            ....  2.500e-12 Eh

Convergence Tolerance:
 Convergence Check Mode ConvCheckMode   .... Total+1el-Energy
 Convergence forced     ConvForced      .... 0
 Energy Change          TolE            ....  1.000e-08 Eh
 1-El. energy change                    ....  1.000e-05 Eh
 Orbital Gradient       TolG            ....  1.000e-05
 Orbital Rotation angle TolX            ....  1.000e-05
 DIIS Error             TolErr          ....  5.000e-07


Diagonalization of the overlap matrix:
Smallest eigenvalue                        ... 1.996e-02
Time for diagonalization                   ...    0.001 sec
Threshold for overlap eigenvalues          ... 1.000e-08
Number of eigenvalues below threshold      ... 0
Time for construction of square roots      ...    0.004 sec
Total time needed                          ...    0.005 sec

SHARK General Contraction Test:  Segmented basis detected
   -> Pre-screening matrix found on disk - Trying to read with NShells=30
   -> Passing Pre-screening matrix on to SHARK ...ok
   -> Leaving CheckPreScreeningMatrix
----------------------
SHARK INTEGRAL PACKAGE
----------------------

Number of atoms                             ...      5
Number of basis functions                   ...     66
Number of shells                            ...     30
Maximum angular momentum                    ...      2
Integral batch strategy                     ... SHARK/LIBINT Hybrid
RI-J (if used) integral strategy            ... SPLIT-RIJ (Revised 2003 algorithm where possible)
Printlevel                                  ...      2
Contraction scheme used                     ... SEGMENTED contraction
Coulomb Range Separation                    ... NOT USED
Exchange Range Separation                   ... NOT USED
Finite Nucleus Model                        ... NOT USED
Auxiliary Coulomb fitting basis             ... AVAILABLE
   # of basis functions in Aux-J            ...    216
   # of shells in Aux-J                     ...     70
   Maximum angular momentum in Aux-J        ...      4
Auxiliary J/K fitting basis                 ... NOT available
Auxiliary Correlation fitting basis         ... NOT available
Auxiliary 'external' fitting basis          ... NOT available
Integral threshold                          ...     2.500000e-11
Primitive cut-off                           ...     2.500000e-12
Primitive pair pre-selection threshold      ...     2.500000e-12

Time for model grid setup =    0.209 sec

------------------------------
INITIAL GUESS: MODEL POTENTIAL
------------------------------
Loading Hartree-Fock densities                     ... done
Calculating cut-offs                               ... done
Initializing the effective Hamiltonian             ... done
Setting up the integral package (SHARK)            ... done
Starting the Coulomb interaction                   ...     -> Generating integrals - 
    -> L=0 0 :     0.006 sec done=      6788 skipped=        86 prim-skipped=         0
    -> L=1 0 :     0.079 sec done=      8489 skipped=        51 prim-skipped=         0
    -> L=1 1 :     0.004 sec done=      3025 skipped=         0 prim-skipped=         0
    -> L=2 0 :     0.003 sec done=      3356 skipped=        30 prim-skipped=         0
    -> L=2 1 :     0.002 sec done=      2200 skipped=         0 prim-skipped=         0
    -> L=2 2 :     0.001 sec done=       550 skipped=         0 prim-skipped=         0
done (   0.1 sec)
Reading the grid                                   ... done
Mapping shells                                     ... done
Starting the XC term evaluation                    ... done (   0.1 sec)
  promolecular density results
     # of electrons  =     40.999319873
     EX              =    -48.713685324
     EC              =     -1.537759237
     EX+EC           =    -50.251444562
Transforming the Hamiltonian                       ... done (   0.0 sec)
Diagonalizing the Hamiltonian                      ... done (   0.0 sec)
Back transforming the eigenvectors                 ... done (   0.0 sec)
Now organizing SCF variables                       ... done
                      ------------------
                      INITIAL GUESS DONE (   0.5 sec)
                      ------------------
-------------------
DFT GRID GENERATION
-------------------

General Integration Accuracy     IntAcc      ... 4.388
Radial Grid Type                 RadialGrid  ... OptM3 with GC (2021)
Angular Grid (max. ang.)         AngularGrid ... 4 (Lebedev-302)
Angular grid pruning method      GridPruning ... 4 (adaptive)
Weight generation scheme         WeightScheme... Becke
Basis function cutoff            BFCut       ... 1.0000e-11
Integration weight cutoff        WCut        ... 1.0000e-14
Angular grids for H and He will be reduced by one unit
Partially contracted basis set               ... off
Rotationally invariant grid construction     ... off

Total number of grid points                  ...    30177
Total number of batches                      ...      473
Average number of points per batch           ...       63
Average number of grid points per atom       ...     6035
Time for grid setup =    1.107 sec

--------------------
COSX GRID GENERATION
--------------------

GRIDX 1
-------
General Integration Accuracy     IntAcc      ... 3.816
Radial Grid Type                 RadialGrid  ... OptM3 with GC (2021)
Angular Grid (max. ang.)         AngularGrid ... 1 (Lebedev-50)
Angular grid pruning method      GridPruning ... 4 (adaptive)
Weight generation scheme         WeightScheme... Becke
Basis function cutoff            BFCut       ... 1.0000e-11
Integration weight cutoff        WCut        ... 1.0000e-14
Angular grids for H and He will be reduced by one unit
Partially contracted basis set               ... on
Rotationally invariant grid construction     ... off

Total number of grid points                  ...     3656
Total number of batches                      ...       60
Average number of points per batch           ...       60
Average number of grid points per atom       ...      731
UseSFitting                                  ... on

GRIDX 2
-------
General Integration Accuracy     IntAcc      ... 4.020
Radial Grid Type                 RadialGrid  ... OptM3 with GC (2021)
Angular Grid (max. ang.)         AngularGrid ... 2 (Lebedev-110)
Angular grid pruning method      GridPruning ... 4 (adaptive)
Weight generation scheme         WeightScheme... Becke
Basis function cutoff            BFCut       ... 1.0000e-11
Integration weight cutoff        WCut        ... 1.0000e-14
Angular grids for H and He will be reduced by one unit
Partially contracted basis set               ... on
Rotationally invariant grid construction     ... off

Total number of grid points                  ...     8465
Total number of batches                      ...      135
Average number of points per batch           ...       62
Average number of grid points per atom       ...     1693
UseSFitting                                  ... on

GRIDX 3
-------
General Integration Accuracy     IntAcc      ... 4.338
Radial Grid Type                 RadialGrid  ... OptM3 with GC (2021)
Angular Grid (max. ang.)         AngularGrid ... 3 (Lebedev-194)
Angular grid pruning method      GridPruning ... 4 (adaptive)
Weight generation scheme         WeightScheme... Becke
Basis function cutoff            BFCut       ... 1.0000e-11
Integration weight cutoff        WCut        ... 1.0000e-14
Angular grids for H and He will be reduced by one unit
Partially contracted basis set               ... on
Rotationally invariant grid construction     ... off

Total number of grid points                  ...    20032
Total number of batches                      ...      316
Average number of points per batch           ...       63
Average number of grid points per atom       ...     4006
UseSFitting                                  ... on

Time for X-Grid setup             =    1.181 sec


--------------------
CPCM SOLVATION MODEL
--------------------
CPCM parameters:
  Epsilon                                         ...      69.0000
  Refrac                                          ...       1.3400
  Rsolv                                           ...       1.3000
  Surface type                                    ... GAUSSIAN VDW
  Epsilon function type                           ...         CPCM
Radii:
 Radius for O  used is    3.4469 Bohr (=   1.8240 Ang.)
 Radius for Al used is    4.1725 Bohr (=   2.2080 Ang.)
 Radius for Na used is    5.1476 Bohr (=   2.7240 Ang.)
 Radius for H  used is    2.4944 Bohr (=   1.3200 Ang.)
Calculating surface                               ...        done! (  0.0s)
GEPOL surface points                              ...          379
GEPOL Volume                                      ...     964.6203
GEPOL Surface-area                                ...     533.2788
Calculating surface distance matrix               ...        done! (  0.0s)
Performing Cholesky decomposition & store         ...        done! (  0.0s)
Overall time for CPCM initialization              ...                 0.0s
--------------
SCF ITERATIONS
--------------
               ***  Starting incremental Fock matrix formation  ***
==>> SHARK/AuxDens: NDens=1 Thresh =     2.500000e-11 TCut=    2.500000e-12 Lmax=2 LmaxAux=4
    -> Making Hermite density - ok     0.001 sec
    -> Making Aux-basis density - (lmax=2)
    -> L=0 0:    0.085 sec done=      8421 ( 95.5%) skipped=       399 
    -> L=1 0:    0.008 sec done=     10634 ( 97.4%) skipped=       286 
    -> L=1 1:    0.005 sec done=      3850 (100.0%) skipped=         0 
    -> L=2 0:    0.003 sec done=      4200 ( 96.8%) skipped=       140 
    -> L=2 1:    0.083 sec done=      2800 (100.0%) skipped=         0 
    -> L=2 2:    0.001 sec done=       700 (100.0%) skipped=         0 
    -> Aux basis density formed in    0.2 sec
    -> Solving linear equations - ok (   0.0 sec)
        Auxbasis Hermite Density:
        P|s>                     ...  0.000
        P|p>                     ...  0.000
        P|d>                     ...  0.000
        P|f>                     ...  0.000
        P|g>                     ...  0.000
        Building the Coulomb matrix: 
        J|ss>                          ... done (  0.0 sec) ndone=    53937 nskipped1=      971 nskipped2=     1912
        J|ps>                          ... done (  0.0 sec) ndone=    60127 nskipped1=      810 nskipped2=     2853
        J|pp>                          ... done (  0.1 sec) ndone=    23608 nskipped1=        0 nskipped2=      482
        J|ds>                          ... done (  0.0 sec) ndone=    14047 nskipped1=      490 nskipped2=      723
        J|dp>                          ... done (  0.0 sec) ndone=     8806 nskipped1=        0 nskipped2=      214
        J|dd>                          ... done (  0.0 sec) ndone=     1100 nskipped1=        0 nskipped2=        0
        Coulomb matrix built in   0.1 sec

        Total time for Split-RI-J                ...    0.294 sec
          (0) Prelude                            ...    0.000 sec
          (1) Hermite density                    ...    0.000 sec
          (2) Aux basis density                  ...    0.000 sec (inner=  0.0)
          (3) Linear equation solution           ...    0.000 sec
          (4) J-Matrix construction              ...    0.105 sec (inner=  0.1)
        ---------------------------------------------------------

                         ----------------------------
                         !        ITERATION     0   !
                         ----------------------------
   Total Energy        :    -554.275305305902 Eh
   Energy Change       :    -554.275305305902 Eh
   MAX-DP              :       5.916923732767
   RMS-DP              :       0.151969560902
   Actual Damping      :       0.7000
   Actual Level Shift  :       0.2500 Eh
   Int. Num. El.       :    49.99707020 (UP=   24.99853510 DN=   24.99853510)
   Exchange            :   -41.54744758
   Correlation         :    -2.11418745

==>> SHARK/AuxDens: NDens=1 Thresh =     2.500000e-11 TCut=    2.500000e-12 Lmax=2 LmaxAux=4
    -> Making Hermite density - ok     0.002 sec
    -> Making Aux-basis density - (lmax=2)
    -> L=0 0:    0.006 sec done=      8422 ( 95.5%) skipped=       398 
    -> L=1 0:    0.079 sec done=     10415 ( 95.4%) skipped=       505 
    -> L=1 1:    0.005 sec done=      3850 (100.0%) skipped=         0 
    -> L=2 0:    0.003 sec done=      4200 ( 96.8%) skipped=       140 
    -> L=2 1:    0.084 sec done=      2800 (100.0%) skipped=         0 
    -> L=2 2:    0.001 sec done=       700 (100.0%) skipped=         0 
    -> Aux basis density formed in    0.2 sec
    -> Solving linear equations - ok (   0.0 sec)
        Auxbasis Hermite Density:
        P|s>                     ...  0.000
        P|p>                     ...  0.000
        P|d>                     ...  0.000
        P|f>                     ...  0.000
        P|g>                     ...  0.000
        Building the Coulomb matrix: 
        J|ss>                          ... done (  0.0 sec) ndone=    53667 nskipped1=     1296 nskipped2=     1265
        J|ps>                          ... done (  0.0 sec) ndone=    59908 nskipped1=     1161 nskipped2=     2243
        J|pp>                          ... done (  0.1 sec) ndone=    23608 nskipped1=        0 nskipped2=      482
        J|ds>                          ... done (  0.0 sec) ndone=    14023 nskipped1=      640 nskipped2=      337
        J|dp>                          ... done (  0.0 sec) ndone=     8806 nskipped1=        0 nskipped2=      214
        J|dd>                          ... done (  0.0 sec) ndone=     1100 nskipped1=        0 nskipped2=        0
        Coulomb matrix built in   0.1 sec

        Total time for Split-RI-J                ...    0.287 sec
          (0) Prelude                            ...    0.000 sec
          (1) Hermite density                    ...    0.000 sec
          (2) Aux basis density                  ...    0.000 sec (inner=  0.0)
          (3) Linear equation solution           ...    0.000 sec
          (4) J-Matrix construction              ...    0.106 sec (inner=  0.1)
        ---------------------------------------------------------

                         ----------------------------
                         !        ITERATION     1   !
                         ----------------------------
   Total Energy        :    -554.809771531328 Eh
   Energy Change       :      -0.534466225426 Eh
   MAX-DP              :       3.679572679005
   RMS-DP              :       0.090907147102
   Actual Damping      :       0.7000
   Actual Level Shift  :       0.2500 Eh
   Int. Num. El.       :    49.98411675 (UP=   24.99205837 DN=   24.99205837)
   Exchange            :   -40.36424382
   Correlation         :    -2.05864249

==>> SHARK/AuxDens: NDens=1 Thresh =     2.500000e-11 TCut=    2.500000e-12 Lmax=2 LmaxAux=4
    -> Making Hermite density - ok     0.002 sec
    -> Making Aux-basis density - (lmax=2)
    -> L=0 0:    0.003 sec done=      8415 ( 95.4%) skipped=       405 
    -> L=1 0:    0.005 sec done=     10415 ( 95.4%) skipped=       505 
    -> L=1 1:    0.074 sec done=      3850 (100.0%) skipped=         0 
    -> L=2 0:    0.003 sec done=      4200 ( 96.8%) skipped=       140 
    -> L=2 1:    0.003 sec done=      2800 (100.0%) skipped=         0 
    -> L=2 2:    0.001 sec done=       700 (100.0%) skipped=         0 
    -> Aux basis density formed in    0.1 sec
    -> Solving linear equations - ok (   0.0 sec)
        Auxbasis Hermite Density:
        P|s>                     ...  0.000
        P|p>                     ...  0.000
        P|d>                     ...  0.000
        P|f>                     ...  0.000
        P|g>                     ...  0.000
        Building the Coulomb matrix: 
        J|ss>                          ... done (  0.0 sec) ndone=    53527 nskipped1=     1432 nskipped2=     1189
        J|ps>                          ... done (  0.0 sec) ndone=    59802 nskipped1=     1269 nskipped2=     2159
        J|pp>                          ... done (  0.0 sec) ndone=    23608 nskipped1=        0 nskipped2=      482
        J|ds>                          ... done (  0.1 sec) ndone=    14011 nskipped1=      700 nskipped2=      289
        J|dp>                          ... done (  0.0 sec) ndone=     8806 nskipped1=        0 nskipped2=      214
        J|dd>                          ... done (  0.0 sec) ndone=     1100 nskipped1=        0 nskipped2=        0
        Coulomb matrix built in   0.1 sec

        Total time for Split-RI-J                ...    0.186 sec
          (0) Prelude                            ...    0.000 sec
          (1) Hermite density                    ...    0.000 sec
          (2) Aux basis density                  ...    0.000 sec (inner=  0.0)
          (3) Linear equation solution           ...    0.000 sec
          (4) J-Matrix construction              ...    0.095 sec (inner=  0.1)
        ---------------------------------------------------------
                               ***Turning on DIIS***

                         ----------------------------
                         !        ITERATION     2   !
                         ----------------------------
   Total Energy        :    -554.795838820866 Eh
   Energy Change       :       0.013932710462 Eh
   MAX-DP              :       1.634841859186
   RMS-DP              :       0.044943039302
   Actual Damping      :       0.7000
   Actual Level Shift  :       0.2500 Eh
   Int. Num. El.       :    49.97572544 (UP=   24.98786272 DN=   24.98786272)
   Exchange            :   -39.90308464
   Correlation         :    -2.03357334
   DIIS-Error          :       0.126533779565

==>> SHARK/AuxDens: NDens=1 Thresh =     2.500000e-11 TCut=    2.500000e-12 Lmax=2 LmaxAux=4
    -> Making Hermite density - ok     0.002 sec
    -> Making Aux-basis density - (lmax=2)
    -> L=0 0:    0.004 sec done=      8402 ( 95.3%) skipped=       418 
    -> L=1 0:    0.006 sec done=     10374 ( 95.0%) skipped=       546 
    -> L=1 1:    0.004 sec done=      3850 (100.0%) skipped=         0 
    -> L=2 0:    0.002 sec done=      4200 ( 96.8%) skipped=       140 
    -> L=2 1:    0.002 sec done=      2800 (100.0%) skipped=         0 
    -> L=2 2:    0.000 sec done=       700 (100.0%) skipped=         0 
    -> Aux basis density formed in    0.0 sec
    -> Solving linear equations - ok (   0.0 sec)
        Auxbasis Hermite Density:
        P|s>                     ...  0.000
        P|p>                     ...  0.000
        P|d>                     ...  0.000
        P|f>                     ...  0.000
        P|g>                     ...  0.000
        Building the Coulomb matrix: 
        J|ss>                          ... done (  0.0 sec) ndone=    53439 nskipped1=     1504 nskipped2=     1133
        J|ps>                          ... done (  0.1 sec) ndone=    59705 nskipped1=     1368 nskipped2=     2080
        J|pp>                          ... done (  0.0 sec) ndone=    23608 nskipped1=        0 nskipped2=      482
        J|ds>                          ... done (  0.0 sec) ndone=    14011 nskipped1=      700 nskipped2=      289
        J|dp>                          ... done (  0.0 sec) ndone=     8806 nskipped1=        0 nskipped2=      214
        J|dd>                          ... done (  0.0 sec) ndone=     1100 nskipped1=        0 nskipped2=        0
        Coulomb matrix built in   0.1 sec

        Total time for Split-RI-J                ...    0.103 sec
          (0) Prelude                            ...    0.000 sec
          (1) Hermite density                    ...    0.000 sec
          (2) Aux basis density                  ...    0.000 sec (inner=  0.0)
          (3) Linear equation solution           ...    0.000 sec
          (4) J-Matrix construction              ...    0.083 sec (inner=  0.1)
        ---------------------------------------------------------

                         ----------------------------
                         !        ITERATION     3   !
                         ----------------------------
   Total Energy        :    -555.049716258855 Eh
   Energy Change       :      -0.253877437989 Eh
   MAX-DP              :       4.127118009315
   RMS-DP              :       0.114166666478
   Actual Damping      :       0.0000
   Actual Level Shift  :       0.2500 Eh
   Int. Num. El.       :    49.97748576 (UP=   24.98874288 DN=   24.98874288)
   Exchange            :   -40.09723789
   Correlation         :    -2.03984724
   DIIS-Error          :       0.040563643942
   DIIS coefficients:
     -0.19348   1.19348

==>> SHARK/AuxDens: NDens=1 Thresh =     2.500000e-11 TCut=    2.500000e-12 Lmax=2 LmaxAux=4
    -> Making Hermite density - ok     0.001 sec
    -> Making Aux-basis density - (lmax=2)
    -> L=0 0:    0.004 sec done=      8417 ( 95.4%) skipped=       403 
    -> L=1 0:    0.007 sec done=     10515 ( 96.3%) skipped=       405 
    -> L=1 1:    0.086 sec done=      3850 (100.0%) skipped=         0 
    -> L=2 0:    0.004 sec done=      4200 ( 96.8%) skipped=       140 
    -> L=2 1:    0.004 sec done=      2800 (100.0%) skipped=         0 
    -> L=2 2:    0.001 sec done=       700 (100.0%) skipped=         0 
    -> Aux basis density formed in    0.1 sec
    -> Solving linear equations - ok (   0.0 sec)
        Auxbasis Hermite Density:
        P|s>                     ...  0.000
        P|p>                     ...  0.000
        P|d>                     ...  0.000
        P|f>                     ...  0.000
        P|g>                     ...  0.000
        Building the Coulomb matrix: 
        J|ss>                          ... done (  0.0 sec) ndone=    53665 nskipped1=     1322 nskipped2=     1259
        J|ps>                          ... done (  0.1 sec) ndone=    59951 nskipped1=     1167 nskipped2=     2210
        J|pp>                          ... done (  0.0 sec) ndone=    23608 nskipped1=        0 nskipped2=      482
        J|ds>                          ... done (  0.0 sec) ndone=    14013 nskipped1=      690 nskipped2=      297
        J|dp>                          ... done (  0.0 sec) ndone=     8806 nskipped1=        0 nskipped2=      214
        J|dd>                          ... done (  0.0 sec) ndone=     1100 nskipped1=        0 nskipped2=        0
        Coulomb matrix built in   0.1 sec

        Total time for Split-RI-J                ...    0.214 sec
          (0) Prelude                            ...    0.000 sec
          (1) Hermite density                    ...    0.000 sec
          (2) Aux basis density                  ...    0.000 sec (inner=  0.0)
          (3) Linear equation solution           ...    0.000 sec
          (4) J-Matrix construction              ...    0.103 sec (inner=  0.1)
        ---------------------------------------------------------

                         ----------------------------
                         !        ITERATION     4   !
                         ----------------------------
   Total Energy        :    -555.488400289722 Eh
   Energy Change       :      -0.438684030866 Eh
   MAX-DP              :       0.073073523537
   RMS-DP              :       0.002182778830
   Actual Damping      :       0.7000
   Actual Level Shift  :       0.2500 Eh
   Int. Num. El.       :    49.98238022 (UP=   24.99119011 DN=   24.99119011)
   Exchange            :   -40.44090102
   Correlation         :    -2.05176156
   DIIS-Error          :       0.154262237953
   DIIS coefficients:
      0.45547   0.09656   0.44797

==>> SHARK/AuxDens: NDens=1 Thresh =     2.500000e-11 TCut=    2.500000e-12 Lmax=2 LmaxAux=4
    -> Making Hermite density - ok     0.002 sec
    -> Making Aux-basis density - (lmax=2)
    -> L=0 0:    0.004 sec done=      8366 ( 94.9%) skipped=       454 
    -> L=1 0:    0.005 sec done=     10237 ( 93.7%) skipped=       683 
    -> L=1 1:    0.084 sec done=      3740 ( 97.1%) skipped=       110 
    -> L=2 0:    0.002 sec done=      4135 ( 95.3%) skipped=       205 
    -> L=2 1:    0.003 sec done=      2800 (100.0%) skipped=         0 
    -> L=2 2:    0.001 sec done=       699 ( 99.9%) skipped=         1 
    -> Aux basis density formed in    0.1 sec
    -> Solving linear equations - ok (   0.0 sec)
        Auxbasis Hermite Density:
        P|s>                     ...  0.000
        P|p>                     ...  0.000
        P|d>                     ...  0.000
        P|f>                     ...  0.000
        P|g>                     ...  0.000
        Building the Coulomb matrix: 
        J|ss>                          ... done (  0.0 sec) ndone=    53124 nskipped1=     1821 nskipped2=     1059
        J|ps>                          ... done (  0.0 sec) ndone=    58676 nskipped1=     2217 nskipped2=     1671
        J|pp>                          ... done (  0.0 sec) ndone=    23479 nskipped1=      100 nskipped2=      424
        J|ds>                          ... done (  0.1 sec) ndone=    14009 nskipped1=      702 nskipped2=      289
        J|dp>                          ... done (  0.0 sec) ndone=     8806 nskipped1=        0 nskipped2=      214
        J|dd>                          ... done (  0.0 sec) ndone=     1100 nskipped1=        0 nskipped2=        0
        Coulomb matrix built in   0.1 sec

        Total time for Split-RI-J                ...    0.198 sec
          (0) Prelude                            ...    0.000 sec
          (1) Hermite density                    ...    0.000 sec
          (2) Aux basis density                  ...    0.000 sec (inner=  0.0)
          (3) Linear equation solution           ...    0.000 sec
          (4) J-Matrix construction              ...    0.095 sec (inner=  0.1)
        ---------------------------------------------------------

                         ----------------------------
                         !        ITERATION     5   !
                         ----------------------------
   Total Energy        :    -555.497601597108 Eh
   Energy Change       :      -0.009201307386 Eh
   MAX-DP              :       0.095725515324
   RMS-DP              :       0.002845801010
   Actual Damping      :       0.7000
   Actual Level Shift  :       0.2500 Eh
   Int. Num. El.       :    49.98253142 (UP=   24.99126571 DN=   24.99126571)
   Exchange            :   -40.42472014
   Correlation         :    -2.05127739
   DIIS-Error          :       0.141959055801
   DIIS coefficients:
      0.48260   0.00472  -0.19066   0.70334

==>> SHARK/AuxDens: NDens=1 Thresh =     2.500000e-11 TCut=    2.500000e-12 Lmax=2 LmaxAux=4
    -> Making Hermite density - ok     0.002 sec
    -> Making Aux-basis density - (lmax=2)
    -> L=0 0:    0.084 sec done=      8355 ( 94.7%) skipped=       465 
    -> L=1 0:    0.006 sec done=     10246 ( 93.8%) skipped=       674 
    -> L=1 1:    0.004 sec done=      3754 ( 97.5%) skipped=        96 
    -> L=2 0:    0.003 sec done=      4152 ( 95.7%) skipped=       188 
    -> L=2 1:    0.003 sec done=      2800 (100.0%) skipped=         0 
    -> L=2 2:    0.001 sec done=       699 ( 99.9%) skipped=         1 
    -> Aux basis density formed in    0.1 sec
    -> Solving linear equations - ok (   0.1 sec)
        Auxbasis Hermite Density:
        P|s>                     ...  0.000
        P|p>                     ...  0.000
        P|d>                     ...  0.000
        P|f>                     ...  0.000
        P|g>                     ...  0.000
        Building the Coulomb matrix: 
        J|ss>                          ... done (  0.0 sec) ndone=    53139 nskipped1=     1808 nskipped2=     1060
        J|ps>                          ... done (  0.0 sec) ndone=    58752 nskipped1=     2129 nskipped2=     1688
        J|pp>                          ... done (  0.0 sec) ndone=    23509 nskipped1=       69 nskipped2=      431
        J|ds>                          ... done (  0.0 sec) ndone=    14011 nskipped1=      700 nskipped2=      289
        J|dp>                          ... done (  0.0 sec) ndone=     8806 nskipped1=        0 nskipped2=      214
        J|dd>                          ... done (  0.0 sec) ndone=     1100 nskipped1=        0 nskipped2=        0
        Coulomb matrix built in   0.0 sec

        Total time for Split-RI-J                ...    0.206 sec
          (0) Prelude                            ...    0.000 sec
          (1) Hermite density                    ...    0.000 sec
          (2) Aux basis density                  ...    0.000 sec (inner=  0.0)
          (3) Linear equation solution           ...    0.000 sec
          (4) J-Matrix construction              ...    0.021 sec (inner=  0.0)
        ---------------------------------------------------------

                         ----------------------------
                         !        ITERATION     6   !
                         ----------------------------
   Total Energy        :    -555.507543070186 Eh
   Energy Change       :      -0.009941473078 Eh
   MAX-DP              :       0.100769073062
   RMS-DP              :       0.002989884874
   Actual Damping      :       0.7000
   Actual Level Shift  :       0.2500 Eh
   Int. Num. El.       :    49.98272663 (UP=   24.99136331 DN=   24.99136331)
   Exchange            :   -40.40724619
   Correlation         :    -2.05070209
   DIIS-Error          :       0.128980030364
   DIIS coefficients:
      0.46597  -0.06310  -0.35334  -0.21576   1.16623

==>> SHARK/AuxDens: NDens=1 Thresh =     2.500000e-11 TCut=    2.500000e-12 Lmax=2 LmaxAux=4
    -> Making Hermite density - ok     0.001 sec
    -> Making Aux-basis density - (lmax=2)
    -> L=0 0:    0.003 sec done=      8335 ( 94.5%) skipped=       485 
    -> L=1 0:    0.087 sec done=     10246 ( 93.8%) skipped=       674 
    -> L=1 1:    0.005 sec done=      3762 ( 97.7%) skipped=        88 
    -> L=2 0:    0.003 sec done=      4149 ( 95.6%) skipped=       191 
    -> L=2 1:    0.003 sec done=      2800 (100.0%) skipped=         0 
    -> L=2 2:    0.001 sec done=       696 ( 99.4%) skipped=         4 
    -> Aux basis density formed in    0.1 sec
    -> Solving linear equations - ok (   0.0 sec)
        Auxbasis Hermite Density:
        P|s>                     ...  0.000
        P|p>                     ...  0.000
        P|d>                     ...  0.000
        P|f>                     ...  0.000
        P|g>                     ...  0.000
        Building the Coulomb matrix: 
        J|ss>                          ... done (  0.1 sec) ndone=    53143 nskipped1=     1798 nskipped2=     1063
        J|ps>                          ... done (  0.0 sec) ndone=    58856 nskipped1=     2058 nskipped2=     1746
        J|pp>                          ... done (  0.0 sec) ndone=    23520 nskipped1=       54 nskipped2=      434
        J|ds>                          ... done (  0.0 sec) ndone=    14011 nskipped1=      700 nskipped2=      289
        J|dp>                          ... done (  0.0 sec) ndone=     8806 nskipped1=        0 nskipped2=      214
        J|dd>                          ... done (  0.0 sec) ndone=     1100 nskipped1=        0 nskipped2=        0
        Coulomb matrix built in   0.1 sec

        Total time for Split-RI-J                ...    0.202 sec
          (0) Prelude                            ...    0.000 sec
          (1) Hermite density                    ...    0.000 sec
          (2) Aux basis density                  ...    0.000 sec (inner=  0.0)
          (3) Linear equation solution           ...    0.000 sec
          (4) J-Matrix construction              ...    0.097 sec (inner=  0.1)
        ---------------------------------------------------------

                         ----------------------------
                         !        ITERATION     7   !
                         ----------------------------
   Total Energy        :    -555.517656820129 Eh
   Energy Change       :      -0.010113749943 Eh
   MAX-DP              :       0.097741500335
   RMS-DP              :       0.002917181543
   Actual Damping      :       0.7000
   Actual Level Shift  :       0.2500 Eh
   Int. Num. El.       :    49.98292908 (UP=   24.99146454 DN=   24.99146454)
   Exchange            :   -40.38796474
   Correlation         :    -2.05000862
   DIIS-Error          :       0.115476767353
   DIIS coefficients:
      1.73449   0.53029  -0.55069  -0.44309  -0.27101

==>> SHARK/AuxDens: NDens=1 Thresh =     2.500000e-11 TCut=    2.500000e-12 Lmax=2 LmaxAux=4
    -> Making Hermite density - ok     0.001 sec
    -> Making Aux-basis density - (lmax=2)
    -> L=0 0:    0.003 sec done=      8375 ( 95.0%) skipped=       445 
    -> L=1 0:    0.086 sec done=     10247 ( 93.8%) skipped=       673 
    -> L=1 1:    0.004 sec done=      3762 ( 97.7%) skipped=        88 
    -> L=2 0:    0.002 sec done=      4139 ( 95.4%) skipped=       201 
    -> L=2 1:    0.003 sec done=      2800 (100.0%) skipped=         0 
    -> L=2 2:    0.001 sec done=       692 ( 98.9%) skipped=         8 
    -> Aux basis density formed in    0.1 sec
    -> Solving linear equations - ok (   0.0 sec)
        Auxbasis Hermite Density:
        P|s>                     ...  0.000
        P|p>                     ...  0.000
        P|d>                     ...  0.000
        P|f>                     ...  0.000
        P|g>                     ...  0.000
        Building the Coulomb matrix: 
        J|ss>                          ... done (  0.1 sec) ndone=    53135 nskipped1=     1808 nskipped2=     1061
        J|ps>                          ... done (  0.0 sec) ndone=    58887 nskipped1=     2022 nskipped2=     1751
        J|pp>                          ... done (  0.0 sec) ndone=    23520 nskipped1=       54 nskipped2=      434
        J|ds>                          ... done (  0.0 sec) ndone=    14011 nskipped1=      700 nskipped2=      289
        J|dp>                          ... done (  0.0 sec) ndone=     8806 nskipped1=        0 nskipped2=      214
        J|dd>                          ... done (  0.0 sec) ndone=     1100 nskipped1=        0 nskipped2=        0
        Coulomb matrix built in   0.1 sec

        Total time for Split-RI-J                ...    0.198 sec
          (0) Prelude                            ...    0.000 sec
          (1) Hermite density                    ...    0.000 sec
          (2) Aux basis density                  ...    0.000 sec (inner=  0.0)
          (3) Linear equation solution           ...    0.000 sec
          (4) J-Matrix construction              ...    0.097 sec (inner=  0.1)
        ---------------------------------------------------------

                         ----------------------------
                         !        ITERATION     8   !
                         ----------------------------
   Total Energy        :    -555.527948657106 Eh
   Energy Change       :      -0.010291836977 Eh
   MAX-DP              :       0.133951319007
   RMS-DP              :       0.004140991729
   Actual Damping      :       0.7000
   Actual Level Shift  :       0.2500 Eh
   Int. Num. El.       :    49.98312140 (UP=   24.99156070 DN=   24.99156070)
   Exchange            :   -40.36505465
   Correlation         :    -2.04918809
   DIIS-Error          :       0.100033872680
   DIIS coefficients:
     -0.37163   3.31480  -0.72232  -0.66275  -0.55810

==>> SHARK/AuxDens: NDens=1 Thresh =     2.500000e-11 TCut=    2.500000e-12 Lmax=2 LmaxAux=4
    -> Making Hermite density - ok     0.001 sec
    -> Making Aux-basis density - (lmax=2)
    -> L=0 0:    0.004 sec done=      8352 ( 94.7%) skipped=       468 
    -> L=1 0:    0.008 sec done=     10278 ( 94.1%) skipped=       642 
    -> L=1 1:    0.005 sec done=      3792 ( 98.5%) skipped=        58 
    -> L=2 0:    0.083 sec done=      4147 ( 95.6%) skipped=       193 
    -> L=2 1:    0.003 sec done=      2800 (100.0%) skipped=         0 
    -> L=2 2:    0.001 sec done=       699 ( 99.9%) skipped=         1 
    -> Aux basis density formed in    0.1 sec
    -> Solving linear equations - ok (   0.0 sec)
        Auxbasis Hermite Density:
        P|s>                     ...  0.000
        P|p>                     ...  0.000
        P|d>                     ...  0.000
        P|f>                     ...  0.000
        P|g>                     ...  0.000
        Building the Coulomb matrix: 
        J|ss>                          ... done (  0.0 sec) ndone=    53196 nskipped1=     1757 nskipped2=     1077
        J|ps>                          ... done (  0.0 sec) ndone=    59075 nskipped1=     1829 nskipped2=     1796
        J|pp>                          ... done (  0.1 sec) ndone=    23556 nskipped1=       36 nskipped2=      458
        J|ds>                          ... done (  0.0 sec) ndone=    14011 nskipped1=      700 nskipped2=      289
        J|dp>                          ... done (  0.0 sec) ndone=     8806 nskipped1=        0 nskipped2=      214
        J|dd>                          ... done (  0.0 sec) ndone=     1100 nskipped1=        0 nskipped2=        0
        Coulomb matrix built in   0.1 sec

        Total time for Split-RI-J                ...    0.206 sec
          (0) Prelude                            ...    0.000 sec
          (1) Hermite density                    ...    0.000 sec
          (2) Aux basis density                  ...    0.000 sec (inner=  0.0)
          (3) Linear equation solution           ...    0.000 sec
          (4) J-Matrix construction              ...    0.100 sec (inner=  0.1)
        ---------------------------------------------------------

                         ----------------------------
                         !        ITERATION     9   !
                         ----------------------------
   Total Energy        :    -555.543737496545 Eh
   Energy Change       :      -0.015788839438 Eh
   MAX-DP              :       0.440820056332
   RMS-DP              :       0.013004826248
   Actual Damping      :       0.0000
   Actual Level Shift  :       0.2500 Eh
   Int. Num. El.       :    49.98339970 (UP=   24.99169985 DN=   24.99169985)
   Exchange            :   -40.30705690
   Correlation         :    -2.04705593
   DIIS-Error          :       0.064279142339
   DIIS coefficients:
     -0.29148  -0.27257   2.14415  -0.28626  -0.29385

==>> SHARK/AuxDens: NDens=1 Thresh =     2.500000e-11 TCut=    2.500000e-12 Lmax=2 LmaxAux=4
    -> Making Hermite density - ok     0.001 sec
    -> Making Aux-basis density - (lmax=2)
    -> L=0 0:    0.003 sec done=      8399 ( 95.2%) skipped=       421 
    -> L=1 0:    0.005 sec done=     10352 ( 94.8%) skipped=       568 
    -> L=1 1:    0.085 sec done=      3844 ( 99.8%) skipped=         6 
    -> L=2 0:    0.002 sec done=      4198 ( 96.7%) skipped=       142 
    -> L=2 1:    0.003 sec done=      2800 (100.0%) skipped=         0 
    -> L=2 2:    0.001 sec done=       700 (100.0%) skipped=         0 
    -> Aux basis density formed in    0.1 sec
    -> Solving linear equations - ok (   0.0 sec)
        Auxbasis Hermite Density:
        P|s>                     ...  0.000
        P|p>                     ...  0.000
        P|d>                     ...  0.000
        P|f>                     ...  0.000
        P|g>                     ...  0.000
        Building the Coulomb matrix: 
        J|ss>                          ... done (  0.0 sec) ndone=    53347 nskipped1=     1566 nskipped2=     1101
        J|ps>                          ... done (  0.0 sec) ndone=    59447 nskipped1=     1511 nskipped2=     1910
        J|pp>                          ... done (  0.0 sec) ndone=    23563 nskipped1=       17 nskipped2=      438
        J|ds>                          ... done (  0.1 sec) ndone=    14011 nskipped1=      700 nskipped2=      289
        J|dp>                          ... done (  0.0 sec) ndone=     8806 nskipped1=        0 nskipped2=      214
        J|dd>                          ... done (  0.0 sec) ndone=     1100 nskipped1=        0 nskipped2=        0
        Coulomb matrix built in   0.1 sec

        Total time for Split-RI-J                ...    0.196 sec
          (0) Prelude                            ...    0.000 sec
          (1) Hermite density                    ...    0.000 sec
          (2) Aux basis density                  ...    0.000 sec (inner=  0.0)
          (3) Linear equation solution           ...    0.000 sec
          (4) J-Matrix construction              ...    0.095 sec (inner=  0.1)
        ---------------------------------------------------------

                         ----------------------------
                         !        ITERATION    10   !
                         ----------------------------
   Total Energy        :    -555.567296783042 Eh
   Energy Change       :      -0.023559286497 Eh
   MAX-DP              :       0.064164141313
   RMS-DP              :       0.001782405493
   Actual Damping      :       0.0000
   Actual Level Shift  :       0.2500 Eh
   Int. Num. El.       :    49.98431277 (UP=   24.99215638 DN=   24.99215638)
   Exchange            :   -40.17515541
   Correlation         :    -2.04181225
   DIIS-Error          :       0.013947701212
   DIIS coefficients:
      0.02585   0.03109   0.02865   0.89241   0.02199

==>> SHARK/AuxDens: NDens=1 Thresh =     2.500000e-11 TCut=    2.500000e-12 Lmax=2 LmaxAux=4
    -> Making Hermite density - ok     0.001 sec
    -> Making Aux-basis density - (lmax=2)
    -> L=0 0:    0.003 sec done=      8331 ( 94.5%) skipped=       489 
    -> L=1 0:    0.085 sec done=     10214 ( 93.5%) skipped=       706 
    -> L=1 1:    0.004 sec done=      3754 ( 97.5%) skipped=        96 
    -> L=2 0:    0.002 sec done=      4060 ( 93.5%) skipped=       280 
    -> L=2 1:    0.003 sec done=      2800 (100.0%) skipped=         0 
    -> L=2 2:    0.001 sec done=       686 ( 98.0%) skipped=        14 
    -> Aux basis density formed in    0.1 sec
    -> Solving linear equations - ok (   0.0 sec)
        Auxbasis Hermite Density:
        P|s>                     ...  0.000
        P|p>                     ...  0.000
        P|d>                     ...  0.000
        P|f>                     ...  0.000
        P|g>                     ...  0.000
        Building the Coulomb matrix: 
        J|ss>                          ... done (  0.0 sec) ndone=    53082 nskipped1=     1855 nskipped2=     1045
        J|ps>                          ... done (  0.1 sec) ndone=    58618 nskipped1=     2223 nskipped2=     1640
        J|pp>                          ... done (  0.0 sec) ndone=    23469 nskipped1=       93 nskipped2=      404
        J|ds>                          ... done (  0.0 sec) ndone=    14003 nskipped1=      704 nskipped2=      289
        J|dp>                          ... done (  0.0 sec) ndone=     8806 nskipped1=        0 nskipped2=      214
        J|dd>                          ... done (  0.0 sec) ndone=     1100 nskipped1=        0 nskipped2=        0
        Coulomb matrix built in   0.1 sec

        Total time for Split-RI-J                ...    0.194 sec
          (0) Prelude                            ...    0.000 sec
          (1) Hermite density                    ...    0.000 sec
          (2) Aux basis density                  ...    0.000 sec (inner=  0.0)
          (3) Linear equation solution           ...    0.000 sec
          (4) J-Matrix construction              ...    0.094 sec (inner=  0.1)
        ---------------------------------------------------------

                         ----------------------------
                         !        ITERATION    11   !
                         ----------------------------
   Total Energy        :    -555.568245628600 Eh
   Energy Change       :      -0.000948845558 Eh
   MAX-DP              :       0.022289778381
   RMS-DP              :       0.001103195423
   Actual Damping      :       0.0000
   Actual Level Shift  :       0.2500 Eh
   Int. Num. El.       :    49.98442550 (UP=   24.99221275 DN=   24.99221275)
   Exchange            :   -40.19017761
   Correlation         :    -2.04224044
   DIIS-Error          :       0.004777929299
   DIIS coefficients:
      0.00150   0.00474   0.00540  -0.35774   1.34610

==>> SHARK/AuxDens: NDens=1 Thresh =     2.500000e-11 TCut=    2.500000e-12 Lmax=2 LmaxAux=4
    -> Making Hermite density - ok     0.001 sec
    -> Making Aux-basis density - (lmax=2)
    -> L=0 0:    0.004 sec done=      8201 ( 93.0%) skipped=       619 
    -> L=1 0:    0.088 sec done=     10227 ( 93.7%) skipped=       693 
    -> L=1 1:    0.005 sec done=      3742 ( 97.2%) skipped=       108 
    -> L=2 0:    0.003 sec done=      4059 ( 93.5%) skipped=       281 
    -> L=2 1:    0.003 sec done=      2800 (100.0%) skipped=         0 
    -> L=2 2:    0.001 sec done=       651 ( 93.0%) skipped=        49 
    -> Aux basis density formed in    0.1 sec
    -> Solving linear equations - ok (   0.0 sec)
        Auxbasis Hermite Density:
        P|s>                     ...  0.000
        P|p>                     ...  0.000
        P|d>                     ...  0.000
        P|f>                     ...  0.000
        P|g>                     ...  0.000
        Building the Coulomb matrix: 
        J|ss>                          ... done (  0.0 sec) ndone=    52950 nskipped1=     1946 nskipped2=      999
        J|ps>                          ... done (  0.1 sec) ndone=    58422 nskipped1=     2376 nskipped2=     1528
        J|pp>                          ... done (  0.0 sec) ndone=    23402 nskipped1=      131 nskipped2=      378
        J|ds>                          ... done (  0.0 sec) ndone=    13996 nskipped1=      706 nskipped2=      282
        J|dp>                          ... done (  0.0 sec) ndone=     8806 nskipped1=        0 nskipped2=      214
        J|dd>                          ... done (  0.0 sec) ndone=     1100 nskipped1=        0 nskipped2=        0
        Coulomb matrix built in   0.1 sec

        Total time for Split-RI-J                ...    0.205 sec
          (0) Prelude                            ...    0.000 sec
          (1) Hermite density                    ...    0.000 sec
          (2) Aux basis density                  ...    0.000 sec (inner=  0.0)
          (3) Linear equation solution           ...    0.000 sec
          (4) J-Matrix construction              ...    0.098 sec (inner=  0.1)
        ---------------------------------------------------------

                         ----------------------------
                         !        ITERATION    12   !
                         ----------------------------
   Total Energy        :    -555.568678900660 Eh
   Energy Change       :      -0.000433272060 Eh
   MAX-DP              :       0.014868400109
   RMS-DP              :       0.000840420647
   Actual Damping      :       0.0000
   Actual Level Shift  :       0.2500 Eh
   Int. Num. El.       :    49.98444108 (UP=   24.99222054 DN=   24.99222054)
   Exchange            :   -40.19728027
   Correlation         :    -2.04246534
   DIIS-Error          :       0.003257373251
   DIIS coefficients:
      1.38054  -0.01051  -0.01434  -0.15586  -0.19984

==>> SHARK/AuxDens: NDens=1 Thresh =     2.500000e-11 TCut=    2.500000e-12 Lmax=2 LmaxAux=4
    -> Making Hermite density - ok     0.001 sec
    -> Making Aux-basis density - (lmax=2)
    -> L=0 0:    0.003 sec done=      8217 ( 93.2%) skipped=       603 
    -> L=1 0:    0.085 sec done=     10212 ( 93.5%) skipped=       708 
    -> L=1 1:    0.004 sec done=      3733 ( 97.0%) skipped=       117 
    -> L=2 0:    0.002 sec done=      4033 ( 92.9%) skipped=       307 
    -> L=2 1:    0.003 sec done=      2800 (100.0%) skipped=         0 
    -> L=2 2:    0.001 sec done=       646 ( 92.3%) skipped=        54 
    -> Aux basis density formed in    0.1 sec
    -> Solving linear equations - ok (   0.0 sec)
        Auxbasis Hermite Density:
        P|s>                     ...  0.000
        P|p>                     ...  0.000
        P|d>                     ...  0.000
        P|f>                     ...  0.000
        P|g>                     ...  0.000
        Building the Coulomb matrix: 
        J|ss>                          ... done (  0.0 sec) ndone=    52944 nskipped1=     1954 nskipped2=     1006
        J|ps>                          ... done (  0.1 sec) ndone=    58339 nskipped1=     2451 nskipped2=     1528
        J|pp>                          ... done (  0.0 sec) ndone=    23400 nskipped1=      147 nskipped2=      393
        J|ds>                          ... done (  0.0 sec) ndone=    13973 nskipped1=      714 nskipped2=      261
        J|dp>                          ... done (  0.0 sec) ndone=     8806 nskipped1=        0 nskipped2=      214
        J|dd>                          ... done (  0.0 sec) ndone=     1100 nskipped1=        0 nskipped2=        0
        Coulomb matrix built in   0.1 sec

        Total time for Split-RI-J                ...    0.194 sec
          (0) Prelude                            ...    0.000 sec
          (1) Hermite density                    ...    0.000 sec
          (2) Aux basis density                  ...    0.000 sec (inner=  0.0)
          (3) Linear equation solution           ...    0.000 sec
          (4) J-Matrix construction              ...    0.094 sec (inner=  0.1)
        ---------------------------------------------------------
                      *** Initiating the SOSCF procedure ***
                           *** Shutting down DIIS ***
                      *** Re-Reading the Fockian *** 
                      *** Removing any level shift *** 

                         ----------------------------
                         !        ITERATION    13   !
                         ----------------------------
   Total Energy        :    -555.568921367879 Eh
   Energy Change       :      -0.000242467219 Eh
   MAX-DP              :       0.013873883678
   RMS-DP              :       0.000654137471
   Orbital gradient    :       0.002900822327
   Orbital Rotation    :       0.002900822327
   Actual Damping      :       0.0000
   Int. Num. El.       :    49.98442858 (UP=   24.99221429 DN=   24.99221429)
   Exchange            :   -40.19946555
   Correlation         :    -2.04251613

               *** Restarting incremental Fock matrix formation ***
==>> SHARK/AuxDens: NDens=1 Thresh =     2.500000e-11 TCut=    2.500000e-12 Lmax=2 LmaxAux=4
    -> Making Hermite density - ok     0.001 sec
    -> Making Aux-basis density - (lmax=2)
    -> L=0 0:    0.004 sec done=      8480 ( 96.1%) skipped=       340 
    -> L=1 0:    0.006 sec done=     10566 ( 96.8%) skipped=       354 
    -> L=1 1:    0.084 sec done=      3850 (100.0%) skipped=         0 
    -> L=2 0:    0.003 sec done=      4200 ( 96.8%) skipped=       140 
    -> L=2 1:    0.003 sec done=      2800 (100.0%) skipped=         0 
    -> L=2 2:    0.001 sec done=       700 (100.0%) skipped=         0 
    -> Aux basis density formed in    0.1 sec
    -> Solving linear equations - ok (   0.0 sec)
        Auxbasis Hermite Density:
        P|s>                     ...  0.000
        P|p>                     ...  0.000
        P|d>                     ...  0.000
        P|f>                     ...  0.000
        P|g>                     ...  0.000
        Building the Coulomb matrix: 
        J|ss>                          ... done (  0.0 sec) ndone=    53946 nskipped1=      976 nskipped2=     1902
        J|ps>                          ... done (  0.0 sec) ndone=    60120 nskipped1=      845 nskipped2=     2809
        J|pp>                          ... done (  0.0 sec) ndone=    23603 nskipped1=        6 nskipped2=      481
        J|ds>                          ... done (  0.0 sec) ndone=    14045 nskipped1=      500 nskipped2=      715
        J|dp>                          ... done (  0.0 sec) ndone=     8806 nskipped1=        0 nskipped2=      214
        J|dd>                          ... done (  0.0 sec) ndone=     1100 nskipped1=        0 nskipped2=        0
        Coulomb matrix built in   0.0 sec

        Total time for Split-RI-J                ...    0.117 sec
          (0) Prelude                            ...    0.000 sec
          (1) Hermite density                    ...    0.000 sec
          (2) Aux basis density                  ...    0.000 sec (inner=  0.0)
          (3) Linear equation solution           ...    0.000 sec
          (4) J-Matrix construction              ...    0.015 sec (inner=  0.0)
        ---------------------------------------------------------

                         ----------------------------
                         !        ITERATION    14   !
                         ----------------------------
   Total Energy        :    -555.568807923451 Eh
   Energy Change       :       0.000113444427 Eh
   MAX-DP              :       0.045643373205
   RMS-DP              :       0.001704071047
   Orbital gradient    :       0.001978861112
   Orbital Rotation    :       0.017409968114
   Actual Damping      :       0.0000
   Int. Num. El.       :    49.98441251 (UP=   24.99220626 DN=   24.99220626)
   Exchange            :   -40.19992845
   Correlation         :    -2.04250814

==>> SHARK/AuxDens: NDens=1 Thresh =     2.500000e-11 TCut=    2.500000e-12 Lmax=2 LmaxAux=4
    -> Making Hermite density - ok     0.002 sec
    -> Making Aux-basis density - (lmax=2)
    -> L=0 0:    0.006 sec done=      8285 ( 93.9%) skipped=       535 
    -> L=1 0:    0.009 sec done=     10210 ( 93.5%) skipped=       710 
    -> L=1 1:    0.084 sec done=      3762 ( 97.7%) skipped=        88 
    -> L=2 0:    0.003 sec done=      4033 ( 92.9%) skipped=       307 
    -> L=2 1:    0.003 sec done=      2800 (100.0%) skipped=         0 
    -> L=2 2:    0.001 sec done=       646 ( 92.3%) skipped=        54 
    -> Aux basis density formed in    0.1 sec
    -> Solving linear equations - ok (   0.0 sec)
        Auxbasis Hermite Density:
        P|s>                     ...  0.000
        P|p>                     ...  0.000
        P|d>                     ...  0.000
        P|f>                     ...  0.000
        P|g>                     ...  0.000
        Building the Coulomb matrix: 
        J|ss>                          ... done (  0.0 sec) ndone=    53025 nskipped1=     1882 nskipped2=     1026
        J|ps>                          ... done (  0.1 sec) ndone=    58623 nskipped1=     2191 nskipped2=     1648
        J|pp>                          ... done (  0.0 sec) ndone=    23452 nskipped1=      100 nskipped2=      421
[...]
          la=1 lb=0:    134 shell pairs
          la=1 lb=1:     49 shell pairs
          la=2 lb=0:     56 shell pairs
          la=2 lb=1:     37 shell pairs
          la=2 lb=2:     10 shell pairs

Calculating one electron integrals          ... done (  0.0 sec)
Calculating RI/J V-Matrix + Cholesky decomp.... done (  0.0 sec)
Calculating Nuclear repulsion               ... done (  0.0 sec) ENN=    111.163962240256 Eh

SHARK setup successfully completed in   0.4 seconds

Maximum memory used throughout the entire GTOINT-calculation: 9.1 MB

Diagonalization of the overlap matrix:
Smallest eigenvalue                        ... 3.132e-02
Time for diagonalization                   ...    0.001 sec
Threshold for overlap eigenvalues          ... 1.000e-08
Number of eigenvalues below threshold      ... 0
Time for construction of square roots      ...    0.074 sec
Total time needed                          ...    0.075 sec

-------------------
DFT GRID GENERATION
-------------------

General Integration Accuracy     IntAcc      ... 4.388
Radial Grid Type                 RadialGrid  ... OptM3 with GC (2021)
Angular Grid (max. ang.)         AngularGrid ... 4 (Lebedev-302)
Angular grid pruning method      GridPruning ... 4 (adaptive)
Weight generation scheme         WeightScheme... Becke
Basis function cutoff            BFCut       ... 1.0000e-11
Integration weight cutoff        WCut        ... 1.0000e-14
Angular grids for H and He will be reduced by one unit
Partially contracted basis set               ... off
Rotationally invariant grid construction     ... off

Total number of grid points                  ...    30294
Total number of batches                      ...      476
Average number of points per batch           ...       63
Average number of grid points per atom       ...     6059
Time for grid setup =    0.604 sec

--------------------
COSX GRID GENERATION
--------------------

GRIDX 1
-------
General Integration Accuracy     IntAcc      ... 3.816
Radial Grid Type                 RadialGrid  ... OptM3 with GC (2021)
Angular Grid (max. ang.)         AngularGrid ... 1 (Lebedev-50)
Angular grid pruning method      GridPruning ... 4 (adaptive)
Weight generation scheme         WeightScheme... Becke
Basis function cutoff            BFCut       ... 1.0000e-11
Integration weight cutoff        WCut        ... 1.0000e-14
Angular grids for H and He will be reduced by one unit
Partially contracted basis set               ... on
Rotationally invariant grid construction     ... off

Total number of grid points                  ...     3671
Total number of batches                      ...       61
Average number of points per batch           ...       60
Average number of grid points per atom       ...      734
UseSFitting                                  ... on

GRIDX 2
-------
General Integration Accuracy     IntAcc      ... 4.020
Radial Grid Type                 RadialGrid  ... OptM3 with GC (2021)
Angular Grid (max. ang.)         AngularGrid ... 2 (Lebedev-110)
Angular grid pruning method      GridPruning ... 4 (adaptive)
Weight generation scheme         WeightScheme... Becke
Basis function cutoff            BFCut       ... 1.0000e-11
Integration weight cutoff        WCut        ... 1.0000e-14
Angular grids for H and He will be reduced by one unit
Partially contracted basis set               ... on
Rotationally invariant grid construction     ... off

Total number of grid points                  ...     8531
Total number of batches                      ...      136
Average number of points per batch           ...       62
Average number of grid points per atom       ...     1706
UseSFitting                                  ... on

GRIDX 3
-------
General Integration Accuracy     IntAcc      ... 4.338
Radial Grid Type                 RadialGrid  ... OptM3 with GC (2021)
Angular Grid (max. ang.)         AngularGrid ... 3 (Lebedev-194)
Angular grid pruning method      GridPruning ... 4 (adaptive)
Weight generation scheme         WeightScheme... Becke
Basis function cutoff            BFCut       ... 1.0000e-11
Integration weight cutoff        WCut        ... 1.0000e-14
Angular grids for H and He will be reduced by one unit
Partially contracted basis set               ... on
Rotationally invariant grid construction     ... off

Total number of grid points                  ...    20176
Total number of batches                      ...      318
Average number of points per batch           ...       63
Average number of grid points per atom       ...     4035
UseSFitting                                  ... on

Time for X-Grid setup             =    0.610 sec


--------------------
CPCM SOLVATION MODEL
--------------------
CPCM parameters:
  Epsilon                                         ...      69.0000
  Refrac                                          ...       1.3400
  Rsolv                                           ...       1.3000
  Surface type                                    ... GAUSSIAN VDW
  Epsilon function type                           ...         CPCM
Radii:
 Radius for O  used is    3.4469 Bohr (=   1.8240 Ang.)
 Radius for Al used is    4.1725 Bohr (=   2.2080 Ang.)
 Radius for Na used is    5.1476 Bohr (=   2.7240 Ang.)
 Radius for H  used is    2.4944 Bohr (=   1.3200 Ang.)
Calculating surface                               ...        done! (  0.0s)
GEPOL surface points                              ...          478
GEPOL Volume                                      ...    1108.7701
GEPOL Surface-area                                ...     724.6035
Calculating surface distance matrix               ...        done! (  0.0s)
Performing Cholesky decomposition & store         ...        done! (  0.0s)
Overall time for CPCM initialization              ...                 0.0s
--------------
SCF ITERATIONS
--------------
ITER       Energy         Delta-E        Max-DP      RMS-DP      [F,P]     Damp
               ***  Starting incremental Fock matrix formation  ***
                      *** Initiating the SOSCF procedure ***
                      *** Re-Reading the Fockian *** 
                      *** Removing any level shift *** 
ITER      Energy       Delta-E        Grad      Rot      Max-DP    RMS-DP
  0   -555.73685120 -555.7368512050  0.003221  0.003221  0.004284  0.000309
               *** Restarting incremental Fock matrix formation ***
  1   -555.73698299  -0.0001317808  0.000757  0.002595  0.005827  0.000277
  2   -555.73699650  -0.0000135136  0.001059  0.002370  0.007631  0.000247
  3   -555.73700209  -0.0000055926  0.000807  0.001430  0.003442  0.000157
  4   -555.73701145  -0.0000093564  0.000357  0.001012  0.001539  0.000082
  5   -555.73700918   0.0000022679  0.000549  0.000632  0.001005  0.000060
  6   -555.73701281  -0.0000036287  0.000015  0.000285  0.000393  0.000012
  7   -555.73701283  -0.0000000235  0.000014  0.001454  0.002000  0.000057
  8   -555.73701290  -0.0000000704  0.000017  0.002279  0.003146  0.000089
  9   -555.73701297  -0.0000000685  0.000020  0.001669  0.002322  0.000065
 10   -555.73701300  -0.0000000321  0.000010  0.000357  0.000507  0.000015
                  ***Gradient check signals convergence***
              ***Rediagonalizing the Fockian in SOSCF/NRSCF***

               *****************************************************
               *                     SUCCESS                       *
               *           SCF CONVERGED AFTER  11 CYCLES          *
               *****************************************************

Old exchange energy                            =    -10.081894124 Eh
New exchange energy                            =    -10.081898085 Eh
Exchange energy change after final integration =     -0.000003961 Eh
Total energy after final integration           =   -555.737016971 Eh
Final COS-X integration done in                =     4.397 sec
Total Energy       :         -555.73701697 Eh          -15122.37304 eV
  Last Energy change         ...   -6.0513e-09  Tolerance :   1.0000e-08
  Last MAX-Density change    ...    7.1054e-15  Tolerance :   1.0000e-07
             **** THE GBW FILE WAS UPDATED (NaAlO2_DFT.gbw) ****
             **** DENSITY NaAlO2_DFT.scfp WAS UPDATED ****
             **** ENERGY FILE WAS UPDATED (NaAlO2_DFT.en.tmp) ****
             **** THE GBW FILE WAS UPDATED (NaAlO2_DFT.gbw) ****
             **** DENSITY NaAlO2_DFT.scfp WAS UPDATED ****
Total SCF time: 0 days 0 hours 0 min 34 sec 

Maximum memory used throughout the entire SCF-calculation: 48.6 MB

-------------------------   --------------------
FINAL SINGLE POINT ENERGY      -555.737016971367
-------------------------   --------------------

------------------------------------------------------------------------------
                         ORCA SCF GRADIENT CALCULATION
------------------------------------------------------------------------------

 ... reading COSX grid (gridx3)
Gradient of the Kohn-Sham DFT energy:
Kohn-Sham wavefunction type      ... RKS
Hartree-Fock exchange scaling    ...    0.200
Number of operators              ...    1
Number of atoms                  ...    5
Basis set dimensions             ...   66
Integral neglect threshold       ... 2.5e-11
Integral primitive cutoff        ... 2.5e-12
SHARK Integral package           ... ON

Nuc. rep. gradient       (SHARK) ... done (  0.0 sec)
HCore & Overlap gradient (SHARK) ... done (  0.1 sec)
RI-J gradient            (SHARK) ... done (  0.4 sec)
COSX-gradient                    ... done (  3.1 sec)
Exchange-correlation gradient    ... done

------------------
CARTESIAN GRADIENT
------------------

   1   O   :   -0.002202585    0.002352013   -0.001542306
   2   Al  :   -0.001139167   -0.000491653   -0.003447168
   3   O   :    0.002780034   -0.002454746    0.004443969
   4   Na  :    0.001543966    0.001374813    0.000013952
   5   H   :   -0.000862477   -0.000404370    0.000675072

Difference to translation invariance:
           :    0.0001197714    0.0003760563    0.0001435187

Difference to rotation invariance:
           :   -0.0007680836    0.0030540809    0.0008418913

Norm of the cartesian gradient     ...    0.0080823830
RMS gradient                       ...    0.0020868623
MAX gradient                       ...    0.0044439693

-------
TIMINGS
-------

Total SCF gradient time            ...        5.999 sec

One electron gradient       ....       0.075 sec  (  1.3%)
RI-J Coulomb gradient       ....       0.404 sec  (  6.7%)
COSX gradient               ....       3.084 sec  ( 51.4%)
XC gradient                 ....       1.623 sec  ( 27.1%)
CPCM gradient               ....       0.138 sec  (  2.3%)
   A-Matrix (El+Nuc)        ....       0.009 sec  (  0.2%)
   Potential                ....       0.129 sec  (  2.1%)

Maximum memory used throughout the entire SCFGRAD-calculation: 37.8 MB
------------------------------------------------------------------------------
                         ORCA GEOMETRY RELAXATION STEP
------------------------------------------------------------------------------

Reading the OPT-File                    .... done
Getting information on internals        .... done
Copying old internal coords+grads       .... done
Making the new internal coordinates     .... (new redundants).... done
Validating the new internal coordinates .... (new redundants).... done
Calculating the B-matrix                .... done
Calculating the G,G- and P matrices     .... done
Transforming gradient to internals      .... done
Projecting the internal gradient        .... done
Number of atoms                         ....   5
Number of internal coordinates          ....  28
Current Energy                          ....  -555.737016971 Eh
Current gradient norm                   ....     0.008082383 Eh/bohr
Maximum allowed component of the step   ....  0.300
Current trust radius                    ....  0.300
Resetting Hessian after 50 BFGS Update Steps....
Build internal Hessian                  .... (Almloef) done
Updating Hessian with the last 5 steps  .... done
Forming the augmented Hessian           .... done
Diagonalizing the augmented Hessian     .... done
Last element of RFO vector              ....  0.782425866
Lowest eigenvalues of augmented Hessian:
 -0.001317220  0.000071246  0.000891598  0.002390803  0.007818823
Length of the computed step             ....  0.795914049
Warning: the length of the step is outside the trust region - taking restricted step instead
The input lambda is                     ....    -0.001317
   iter:   1  x=   -0.001983  g=  816.603546 f(x)=     0.543479
   iter:   2  x=   -0.002808  g=  272.686048 f(x)=     0.225060
   iter:   3  x=   -0.003590  g=  106.289808 f(x)=     0.083113
   iter:   4  x=   -0.004018  g=   54.472850 f(x)=     0.023308
   iter:   5  x=   -0.004100  g=   40.065624 f(x)=     0.003297
   iter:   6  x=   -0.004103  g=   37.908120 f(x)=     0.000090
   iter:   7  x=   -0.004103  g=   37.848322 f(x)=     0.000000
   iter:   8  x=   -0.004103  g=   37.848275 f(x)=     0.000000
The output lambda is                    ....    -0.004103 (8 iterations)
The final length of the internal step   ....  0.300000000
Converting the step to cartesian space:
 Initial RMS(Int)=    0.0566946710
Transforming coordinates:
 Iter   0:  RMS(Cart)=    0.0424725528 RMS(Int)=    0.0507003710
 Iter   1:  RMS(Cart)=    0.0079853116 RMS(Int)=    0.0076435379
 Iter   2:  RMS(Cart)=    0.0000694855 RMS(Int)=    0.0000753584
 Iter   3:  RMS(Cart)=    0.0000003836 RMS(Int)=    0.0000004342
 Iter   4:  RMS(Cart)=    0.0000000031 RMS(Int)=    0.0000000030
done
Storing new coordinates                 .... done

                                .--------------------.
          ----------------------|Geometry convergence|-------------------------
          Item                value                   Tolerance       Converged
          ---------------------------------------------------------------------
          Energy change      -0.0001932340            0.0000050000      NO
          RMS gradient        0.0013790131            0.0001000000      NO
          MAX gradient        0.0052395415            0.0003000000      NO
          RMS step            0.0566946710            0.0020000000      NO
          MAX step            0.2413826009            0.0040000000      NO
          ........................................................
          Max(Bonds)      0.1277      Max(Angles)    1.20
          Max(Dihed)        1.99      Max(Improp)    0.00
          ---------------------------------------------------------------------

The optimization has not yet converged - more geometry cycles are needed


    ---------------------------------------------------------------------------
                         Redundant Internal Coordinates
                            (Angstroem and degrees)

        Definition                    Value    dE/dq     Step     New-Value
    ----------------------------------------------------------------------------
     1. B(Al  1,O   0)                1.7093  0.002386 -0.0053    1.7040   
     2. B(O   2,Al  1)                1.7099  0.005240 -0.0075    1.7024   
     3. B(Na  3,O   2)                5.4818  0.000400  0.0471    5.5289   
     4. B(Na  3,Al  1)                5.6611 -0.002122  0.0550    5.7161   
     5. B(Na  3,O   0)                4.7928  0.000812  0.0313    4.8242   
     6. B(H   4,Na  3)                5.7766 -0.001010  0.1277    5.9043   
     7. B(H   4,Al  1)                4.9642 -0.000229  0.0269    4.9911   
     8. A(Al  1,O   0,Na  3)          112.06 -0.001728    1.20    113.26   
     9. A(O   2,Al  1,H   4)          100.48 -0.000154    0.71    101.18   
    10. A(O   0,Al  1,Na  3)           51.69  0.001251   -0.84     50.84   
    11. A(O   0,Al  1,O   2)          125.46  0.001873   -0.83    124.62   
    12. A(O   2,Al  1,Na  3)           75.27  0.000670   -0.17     75.11   
    13. A(Na  3,Al  1,H   4)           65.48  0.000050    1.02     66.51   
    14. A(O   0,Al  1,H   4)           70.99  0.000767   -1.01     69.99   
    15. A(Al  1,O   2,Na  3)           87.17 -0.001227    0.45     87.62   
    16. A(Al  1,Na  3,O   2)           17.56  0.000557   -0.28     17.28   
    17. A(O   0,Na  3,O   2)           33.57  0.001029   -0.61     32.96   
    18. A(O   0,Na  3,Al  1)           16.25  0.000477   -0.35     15.90   
    19. D(H   4,Al  1,O   0,Na  3)     73.31 -0.000643    1.99     75.30   
    20. D(O   2,Al  1,O   0,Na  3)    -16.16 -0.000339    1.46    -14.71   
    21. D(Na  3,O   2,Al  1,O   0)     13.05  0.000459   -1.47     11.58   
    22. D(Na  3,O   2,Al  1,H   4)    -60.99 -0.000356   -0.80    -61.79   
    23. D(O   0,Na  3,Al  1,O   2)    166.44  0.000082    1.21    167.65   
    24. D(O   0,Na  3,Al  1,H   4)    -84.50 -0.000505    1.63    -82.87   
    25. D(O   2,Na  3,O   0,Al  1)      7.35 -0.000017   -0.63      6.72   
    26. D(O   2,Na  3,Al  1,H   4)    109.06 -0.000588    0.42    109.48   
    27. D(O   0,Na  3,O   2,Al  1)     -6.81  0.000030    0.65     -6.17   
    28. D(O   2,Na  3,Al  1,O   0)   -166.44 -0.000082   -1.21   -167.65   
    ----------------------------------------------------------------------------




    ----------------------------------------------------------------------------
                                  WARNING !!!
       The optimization did not converge but reached the maximum number of
       optimization cycles.
       Please check your results very carefully.
    ----------------------------------------------------------------------------



                            ***************************************
                            *     ORCA property calculations      *
                            ***************************************

                                    ---------------------
                                    Active property flags
                                    ---------------------
   (+) Dipole Moment


------------------------------------------------------------------------------
                       ORCA ELECTRIC PROPERTIES CALCULATION
------------------------------------------------------------------------------

Dipole Moment Calculation                       ... on
Quadrupole Moment Calculation                   ... off
Polarizability Calculation                      ... off
GBWName                                         ... NaAlO2_DFT.gbw
Electron density                                ... NaAlO2_DFT.scfp
The origin for moment calculation is the CENTER OF MASS  = ( 3.575834,  0.891492  1.350638)

-------------
DIPOLE MOMENT
-------------
                                X             Y             Z
Electronic contribution:      3.15864      21.88304      17.36335
Nuclear contribution   :      3.41361       0.99301      -2.93364
                        -----------------------------------------
Total Dipole Moment    :      6.57225      22.87606      14.42971
                        -----------------------------------------
Magnitude (a.u.)       :     27.83388
Magnitude (Debye)      :     70.74810



--------------------
Rotational spectrum 
--------------------
 
Rotational constants in cm-1:     0.185370     0.033817     0.030683 
Rotational constants in MHz :  5557.238967  1013.810425   919.838547 

 Dipole components along the rotational axes: 
x,y,z [a.u.] :   -26.274200     2.672590    -8.789120 
x,y,z [Debye]:   -66.783708     6.793183   -22.340168 

 

Timings for individual modules:

Sum of individual times         ...     2147.517 sec (=  35.792 min)
GTO integral calculation        ...       23.742 sec (=   0.396 min)   1.1 %
SCF iterations                  ...     1731.839 sec (=  28.864 min)  80.6 %
SCF Gradient evaluation         ...      386.933 sec (=   6.449 min)  18.0 %
Geometry relaxation             ...        5.003 sec (=   0.083 min)   0.2 %
                             ****ORCA TERMINATED NORMALLY****
TOTAL RUN TIME: 0 days 0 hours 36 minutes 8 seconds 223 msec
