
                                 *****************
                                 * O   R   C   A *
                                 *****************

                                            #,                                       
                                            ###                                      
                                            ####                                     
                                            #####                                    
                                            ######                                   
                                           ########,                                 
                                     ,,################,,,,,                         
                               ,,#################################,,                 
                          ,,##########################################,,             
                       ,#########################################, ''#####,          
                    ,#############################################,,   '####,        
                  ,##################################################,,,,####,       
                ,###########''''           ''''###############################       
              ,#####''   ,,,,##########,,,,          '''####'''          '####       
            ,##' ,,,,###########################,,,                        '##       
           ' ,,###''''                  '''############,,,                           
         ,,##''                                '''############,,,,        ,,,,,,###''
      ,#''                                            '''#######################'''  
     '                                                          ''''####''''         
             ,#######,   #######,   ,#######,      ##                                
            ,#'     '#,  ##    ##  ,#'     '#,    #''#        ######   ,####,        
            ##       ##  ##   ,#'  ##            #'  '#       #        #'  '#        
            ##       ##  #######   ##           ,######,      #####,   #    #        
            '#,     ,#'  ##    ##  '#,     ,#' ,#      #,         ##   #,  ,#        
             '#######'   ##     ##  '#######'  #'      '#     #####' # '####'        



                  #######################################################
                  #                        -***-                        #
                  #          Department of theory and spectroscopy      #
                  #    Directorship and core code : Frank Neese         #
                  #        Max Planck Institute fuer Kohlenforschung    #
                  #                Kaiser Wilhelm Platz 1               #
                  #                 D-45470 Muelheim/Ruhr               #
                  #                      Germany                        #
                  #                                                     #
                  #                  All rights reserved                #
                  #                        -***-                        #
                  #######################################################


                         Program Version 5.0.4 -  RELEASE  -


 With contributions from (in alphabetic order):
   Daniel Aravena         : Magnetic Suceptibility
   Michael Atanasov       : Ab Initio Ligand Field Theory (pilot matlab implementation)
   Alexander A. Auer      : GIAO ZORA, VPT2 properties, NMR spectrum
   Ute Becker             : Parallelization
   Giovanni Bistoni       : ED, misc. LED, open-shell LED, HFLD
   Martin Brehm           : Molecular dynamics
   Dmytro Bykov           : SCF Hessian
   Vijay G. Chilkuri      : MRCI spin determinant printing, contributions to CSF-ICE
   Dipayan Datta          : RHF DLPNO-CCSD density
   Achintya Kumar Dutta   : EOM-CC, STEOM-CC
   Dmitry Ganyushin       : Spin-Orbit,Spin-Spin,Magnetic field MRCI
   Miquel Garcia          : C-PCM and meta-GGA Hessian, CC/C-PCM, Gaussian charge scheme
   Yang Guo               : DLPNO-NEVPT2, F12-NEVPT2, CIM, IAO-localization
   Andreas Hansen         : Spin unrestricted coupled pair/coupled cluster methods
   Benjamin Helmich-Paris : MC-RPA, TRAH-SCF, COSX integrals
   Lee Huntington         : MR-EOM, pCC
   Robert Izsak           : Overlap fitted RIJCOSX, COSX-SCS-MP3, EOM
   Marcus Kettner         : VPT2
   Christian Kollmar      : KDIIS, OOCD, Brueckner-CCSD(T), CCSD density, CASPT2, CASPT2-K
   Simone Kossmann        : Meta GGA functionals, TD-DFT gradient, OOMP2, MP2 Hessian
   Martin Krupicka        : Initial AUTO-CI
   Lucas Lang             : DCDCAS
   Marvin Lechner         : AUTO-CI (C++ implementation), FIC-MRCC
   Dagmar Lenk            : GEPOL surface, SMD
   Dimitrios Liakos       : Extrapolation schemes; Compound Job, initial MDCI parallelization
   Dimitrios Manganas     : Further ROCIS development; embedding schemes
   Dimitrios Pantazis     : SARC Basis sets
   Anastasios Papadopoulos: AUTO-CI, single reference methods and gradients
   Taras Petrenko         : DFT Hessian,TD-DFT gradient, ASA, ECA, R-Raman, ABS, FL, XAS/XES, NRVS
   Peter Pinski           : DLPNO-MP2, DLPNO-MP2 Gradient
   Christoph Reimann      : Effective Core Potentials
   Marius Retegan         : Local ZFS, SOC
   Christoph Riplinger    : Optimizer, TS searches, QM/MM, DLPNO-CCSD(T), (RO)-DLPNO pert. Triples
   Tobias Risthaus        : Range-separated hybrids, TD-DFT gradient, RPA, STAB
   Michael Roemelt        : Original ROCIS implementation
   Masaaki Saitow         : Open-shell DLPNO-CCSD energy and density
   Barbara Sandhoefer     : DKH picture change effects
   Avijit Sen             : IP-ROCIS
   Kantharuban Sivalingam : CASSCF convergence, NEVPT2, FIC-MRCI
   Bernardo de Souza      : ESD, SOC TD-DFT
   Georgi Stoychev        : AutoAux, RI-MP2 NMR, DLPNO-MP2 response
   Willem Van den Heuvel  : Paramagnetic NMR
   Boris Wezisla          : Elementary symmetry handling
   Frank Wennmohs         : Technical directorship


 We gratefully acknowledge several colleagues who have allowed us to
 interface, adapt or use parts of their codes:
   Stefan Grimme, W. Hujo, H. Kruse, P. Pracht,  : VdW corrections, initial TS optimization,
                  C. Bannwarth, S. Ehlert          DFT functionals, gCP, sTDA/sTD-DF
   Ed Valeev, F. Pavosevic, A. Kumar             : LibInt (2-el integral package), F12 methods
   Garnet Chan, S. Sharma, J. Yang, R. Olivares  : DMRG
   Ulf Ekstrom                                   : XCFun DFT Library
   Mihaly Kallay                                 : mrcc  (arbitrary order and MRCC methods)
   Jiri Pittner, Ondrej Demel                    : Mk-CCSD
   Frank Weinhold                                : gennbo (NPA and NBO analysis)
   Christopher J. Cramer and Donald G. Truhlar   : smd solvation model
   Lars Goerigk                                  : TD-DFT with DH, B97 family of functionals
   V. Asgeirsson, H. Jonsson                     : NEB implementation
   FAccTs GmbH                                   : IRC, NEB, NEB-TS, DLPNO-Multilevel, CI-OPT
                                                   MM, QMMM, 2- and 3-layer-ONIOM, Crystal-QMMM,
                                                   LR-CPCM, SF, NACMEs, symmetry and pop. for TD-DFT,
                                                   nearIR, NL-DFT gradient (VV10), updates on ESD,
                                                   ML-optimized integration grids
   S Lehtola, MJT Oliveira, MAL Marques          : LibXC Library
   Liviu Ungur et al                             : ANISO software


 Your calculation uses the libint2 library for the computation of 2-el integrals
 For citations please refer to: http://libint.valeyev.net

 Your ORCA version has been built with support for libXC version: 5.1.0
 For citations please refer to: https://tddft.org/programs/libxc/

 This ORCA versions uses:
   CBLAS   interface :  Fast vector & matrix operations
   LAPACKE interface :  Fast linear algebra routines
   SCALAPACK package :  Parallel linear algebra routines
   Shared memory     :  Shared parallel matrices
   BLAS/LAPACK       :  OpenBLAS 0.3.15  USE64BITINT DYNAMIC_ARCH NO_AFFINITY SkylakeX SINGLE_THREADED
        Core in use  :  SkylakeX
   Copyright (c) 2011-2014, The OpenBLAS Project


================================================================================

----- Orbital basis set information -----
Your calculation utilizes the basis: def2-SVP
   F. Weigend and R. Ahlrichs, Phys. Chem. Chem. Phys. 7, 3297 (2005).

----- AuxJ basis set information -----
Your calculation utilizes the auxiliary basis: def2/J
   F. Weigend, Phys. Chem. Chem. Phys. 8, 1057 (2006).

================================================================================
                                        WARNINGS
                       Please study these warnings very carefully!
================================================================================


WARNING: Geometry Optimization
  ===> : Switching off AutoStart
         For restart on a previous wavefunction, please use MOREAD

INFO   : the flag for use of the SHARK integral package has been found!

================================================================================
                                       INPUT FILE
================================================================================
NAME = EDTA_DFT.inp
|  1> ## avogadro generated ORCA input file 
|  2> # Advanced Mode
|  3> # 
|  4> ! B3LYP OPT def2-SVP NormalPrint defgrid2 NormalSCF 
|  5> 
|  6> ! CPCM
|  7> %cpcm
|  8> epsilon 69.0
|  9> refrac 1.34
| 10> end
| 11> 
| 12> %scf
| 13> 	MaxIter 125
| 14> 	CNVDIIS 1
| 15> 	CNVSOSCF 1 
| 16> end
| 17> 
| 18> * xyz 0 1
| 19>    C        1.18197       -0.27323       -0.38025
| 20>    C        0.55045        0.93276        0.37559
| 21>    N       -0.91958        1.01780        0.27083
| 22>    C       -1.60088       -0.18436        0.81528
| 23>    C       -1.96559       -1.12979       -0.32652
| 24>    O       -1.53112       -2.26904       -0.42890
| 25>    O       -2.79975       -0.58075       -1.23991
| 26>    C       -1.42634        2.25989        0.89669
| 27>    C       -2.85285        2.55835        0.42098
| 28>    O       -3.49883        1.83006       -0.32548
| 29>    O       -3.35624        3.70895        0.91939
| 30>    N        2.66721       -0.30942       -0.55057
| 31>    C        3.38973       -0.09690        0.74759
| 32>    C        3.11594       -1.20189        1.76361
| 33>    O        3.13980       -1.03032        2.97314
| 34>    O        2.88392       -2.40778        1.19761
| 35>    C        3.06908        0.78721       -1.49668
| 36>    C        4.45206        0.51640       -2.08369
| 37>    O        5.23206        1.38452       -2.44074
| 38>    O        4.70611       -0.80923       -2.20910
| 39>    H        0.72955       -0.34713       -1.37832
| 40>    H        0.88628       -1.19649        0.12820
| 41>    H        0.96937        1.85234       -0.04882
| 42>    H        0.84237        0.90195        1.43259
| 43>    H       -2.53748        0.04953        1.33620
| 44>    H       -0.97993       -0.71416        1.54735
| 45>    H       -3.04676        0.35196       -1.01311
| 46>    H       -0.81554        3.11275        0.57793
| 47>    H       -1.41026        2.18937        1.98982
| 48>    H       -2.74924        4.21035        1.49707
| 49>    H        3.12837        0.86649        1.19846
| 50>    H        4.47221       -0.11072        0.57617
| 51>    H        2.83985       -2.31900        0.22314
| 52>    H        3.07589        1.76482       -1.00246
| 53>    H        2.38588        0.82602       -2.35329
| 54>    H        3.92994       -1.30462       -1.87159
| 55> *
| 56> 
| 57> 
| 58>                          ****END OF INPUT****
================================================================================

                       *****************************
                       * Geometry Optimization Run *
                       *****************************

Geometry optimization settings:
Update method            Update   .... BFGS
Choice of coordinates    CoordSys .... Z-matrix Internals
Initial Hessian          InHess   .... Almoef's Model

Convergence Tolerances:
Energy Change            TolE     ....  5.0000e-06 Eh
Max. Gradient            TolMAXG  ....  3.0000e-04 Eh/bohr
RMS Gradient             TolRMSG  ....  1.0000e-04 Eh/bohr
Max. Displacement        TolMAXD  ....  4.0000e-03 bohr
RMS Displacement         TolRMSD  ....  2.0000e-03 bohr
Strict Convergence                ....  False
------------------------------------------------------------------------------
                        ORCA OPTIMIZATION COORDINATE SETUP
------------------------------------------------------------------------------

The optimization will be done in new redundant internal coordinates
Making redundant internal coordinates   ...  (new redundants) done
Evaluating the initial hessian          ...  (Almloef) done
Evaluating the coordinates              ...  done
Calculating the B-matrix                .... done
Calculating the G-matrix                .... done
Diagonalizing the G-matrix              .... done
Small eigenvalue found = 4.967e-03
Small eigenvalue found = 9.704e-03
Small eigenvalue found = 1.035e-02
Small eigenvalue found = 1.660e-02
Small eigenvalue found = 1.972e-02
Small eigenvalue found = 2.498e-02
The first mode is                       ....   68
The number of degrees of freedom        ....  102

    -----------------------------------------------------------------
                    Redundant Internal Coordinates


    -----------------------------------------------------------------
         Definition                    Initial Value    Approx d2E/dq
    -----------------------------------------------------------------
      1. B(C   1,C   0)                  1.5571         0.338189   
      2. B(N   2,C   1)                  1.4762         0.407693   
      3. B(C   3,N   2)                  1.4852         0.394465   
      4. B(C   4,C   3)                  1.5266         0.378247   
      5. B(O   5,C   4)                  1.2236         1.031325   
      6. B(O   6,C   4)                  1.3533         0.640254   
      7. B(C   7,N   2)                  1.4803         0.401610   
      8. B(C   8,C   7)                  1.5331         0.369383   
      9. B(O   9,C   8)                  1.2267         1.019392   
     10. B(O  10,C   8)                  1.3512         0.645366   
     11. B(N  11,C   0)                  1.4954         0.379925   
     12. B(C  12,N  11)                  1.5008         0.372470   
     13. B(C  13,C  12)                  1.5259         0.379294   
     14. B(O  14,C  13)                  1.2219         1.037803   
     15. B(O  15,C  13)                  1.3522         0.643033   
     16. B(C  16,N  11)                  1.5031         0.369384   
     17. B(C  17,C  16)                  1.5266         0.378250   
     18. B(O  18,C  17)                  1.2205         1.043204   
     19. B(O  19,C  17)                  1.3556         0.635053   
     20. B(H  20,C   0)                  1.0983         0.349271   
     21. B(H  21,C   0)                  1.0947         0.353939   
     22. B(H  22,C   1)                  1.0960         0.352232   
     23. B(H  23,C   1)                  1.0970         0.350954   
     24. B(H  24,C   3)                  1.0969         0.351033   
     25. B(H  25,C   3)                  1.0964         0.351673   
     26. B(H  26,O   6)                  0.9912         0.463715   
     27. B(H  27,C   7)                  1.0964         0.351755   
     28. B(H  28,C   7)                  1.0955         0.352871   
     29. B(H  29,O  10)                  0.9765         0.489363   
     30. B(H  30,C  12)                  1.0953         0.353138   
     31. B(H  31,C  12)                  1.0961         0.352177   
     32. B(H  32,O  15)                  0.9795         0.484016   
     33. B(H  33,C  16)                  1.0955         0.352956   
     34. B(H  34,C  16)                  1.0964         0.351758   
     35. B(H  35,O  19)                  0.9807         0.481890   
     36. A(C   1,C   0,H  20)          109.0360         0.317493   
     37. A(H  20,C   0,H  21)          104.7180         0.288668   
     38. A(N  11,C   0,H  20)          107.6976         0.321661   
     39. A(C   1,C   0,H  21)          108.5547         0.318181   
     40. A(C   1,C   0,N  11)          118.4798         0.356051   
     41. A(N  11,C   0,H  21)          107.5035         0.322361   
     42. A(H  22,C   1,H  23)          107.1553         0.288667   
     43. A(C   0,C   1,N   2)          114.4595         0.360349   
     44. A(N   2,C   1,H  23)          109.5718         0.325663   
     45. A(N   2,C   1,H  22)          107.7466         0.325858   
     46. A(C   0,C   1,H  22)          107.8693         0.317930   
     47. A(C   0,C   1,H  23)          109.7574         0.317742   
     48. A(C   1,N   2,C   3)          112.5919         0.367657   
     49. A(C   1,N   2,C   7)          111.0533         0.368791   
     50. A(C   3,N   2,C   7)          111.5399         0.366710   
     51. A(N   2,C   3,C   4)          109.6753         0.365242   
     52. A(N   2,C   3,H  25)          112.0914         0.324012   
     53. A(H  24,C   3,H  25)          105.6350         0.288605   
     54. A(C   4,C   3,H  25)          109.5985         0.323720   
     55. A(C   4,C   3,H  24)          106.4540         0.323624   
     56. A(N   2,C   3,H  24)          113.1522         0.323915   
     57. A(O   5,C   4,O   6)          122.6919         0.472625   
     58. A(C   3,C   4,O   6)          113.6278         0.397246   
     59. A(C   3,C   4,O   5)          123.6673         0.432368   
     60. A(C   4,O   6,H  26)          112.3918         0.364926   
     61. A(C   8,C   7,H  28)          109.6219         0.322644   
     62. A(N   2,C   7,H  28)          111.2742         0.325150   
     63. A(C   8,C   7,H  27)          106.0649         0.322476   
     64. A(N   2,C   7,H  27)          109.8201         0.324981   
     65. A(N   2,C   7,C   8)          110.5302         0.364882   
     66. A(H  27,C   7,H  28)          109.3902         0.288852   
     67. A(O   9,C   8,O  10)          122.2638         0.472305   
     68. A(C   7,C   8,O  10)          113.4520         0.396149   
     69. A(C   7,C   8,O   9)          124.2784         0.429631   
     70. A(C   8,O  10,H  29)          115.0794         0.368812   
     71. A(C   0,N  11,C  12)          112.0987         0.359705   
     72. A(C  12,N  11,C  16)          108.2058         0.357987   
     73. A(C   0,N  11,C  16)          108.6377         0.359196   
     74. A(N  11,C  12,C  13)          112.7697         0.361848   
     75. A(H  30,C  12,H  31)          108.1273         0.288940   
     76. A(C  13,C  12,H  31)          105.7963         0.323943   
     77. A(N  11,C  12,H  31)          109.7790         0.321055   
     78. A(C  13,C  12,H  30)          108.6654         0.324088   
     79. A(N  11,C  12,H  30)          111.4524         0.321198   
     80. A(O  14,C  13,O  15)          122.8837         0.473546   
     81. A(C  12,C  13,O  15)          113.4469         0.397742   
     82. A(C  12,C  13,O  14)          123.6385         0.433070   
     83. A(C  13,O  15,H  32)          110.0796         0.367888   
     84. A(H  33,C  16,H  34)          108.9519         0.288863   
     85. A(C  17,C  16,H  34)          105.6860         0.323734   
     86. A(N  11,C  16,H  34)          110.5494         0.320556   
     87. A(C  17,C  16,H  33)          109.0355         0.323914   
     88. A(N  11,C  16,H  33)          111.6409         0.320734   
     89. A(N  11,C  16,C  17)          110.7825         0.361165   
     90. A(O  18,C  17,O  19)          123.2817         0.472911   
     91. A(C  16,C  17,O  19)          112.2611         0.396678   
     92. A(C  16,C  17,O  18)          124.4221         0.433260   
     93. A(C  17,O  19,H  35)          108.2895         0.366824   
     94. D(H  22,C   1,C   0,H  21)    171.8088         0.009270   
     95. D(H  23,C   1,C   0,H  20)    168.9140         0.009270   
     96. D(N   2,C   1,C   0,N  11)    168.8186         0.009270   
     97. D(N   2,C   1,C   0,H  21)    -68.2915         0.009270   
     98. D(H  22,C   1,C   0,N  11)     48.9189         0.009270   
     99. D(H  22,C   1,C   0,H  20)    -74.6563         0.009270   
    100. D(N   2,C   1,C   0,H  20)     45.2434         0.009270   
    101. D(H  23,C   1,C   0,N  11)    -67.5108         0.009270   
    102. D(H  23,C   1,C   0,H  21)     55.3791         0.009270   
    103. D(C   7,N   2,C   1,H  22)    -54.2790         0.014182   
    104. D(C   3,N   2,C   1,H  23)    -63.9103         0.014182   
    105. D(C   3,N   2,C   1,H  22)    179.8279         0.014182   
    106. D(C   7,N   2,C   1,C   0)   -174.2472         0.014182   
    107. D(C   7,N   2,C   1,H  23)     61.9829         0.014182   
    108. D(C   3,N   2,C   1,C   0)     59.8597         0.014182   
    109. D(H  25,C   3,N   2,C   7)   -101.9834         0.013294   
    110. D(H  25,C   3,N   2,C   1)     23.6464         0.013294   
    111. D(H  24,C   3,N   2,C   7)     17.3505         0.013294   
    112. D(H  24,C   3,N   2,C   1)    142.9803         0.013294   
    113. D(C   4,C   3,N   2,C   7)    136.0396         0.013294   
    114. D(C   4,C   3,N   2,C   1)    -98.3306         0.013294   
    115. D(O   6,C   4,C   3,H  24)     62.4943         0.010682   
    116. D(O   6,C   4,C   3,N   2)    -60.2566         0.010682   
    117. D(O   5,C   4,C   3,H  25)     -4.9965         0.010682   
    118. D(O   5,C   4,C   3,H  24)   -118.7908         0.010682   
    119. D(O   6,C   4,C   3,H  25)    176.2887         0.010682   
    120. D(O   5,C   4,C   3,N   2)    118.4583         0.010682   
    121. D(H  26,O   6,C   4,O   5)   -179.2174         0.030222   
    122. D(H  26,O   6,C   4,C   3)     -0.4883         0.030222   
    123. D(C   8,C   7,N   2,C   3)    -70.9532         0.013769   
    124. D(C   8,C   7,N   2,C   1)    162.5707         0.013769   
    125. D(H  28,C   7,N   2,C   3)     51.0943         0.013769   
    126. D(H  28,C   7,N   2,C   1)    -75.3819         0.013769   
    127. D(H  27,C   7,N   2,C   3)    172.3627         0.013769   
    128. D(H  27,C   7,N   2,C   1)     45.8865         0.013769   
    129. D(O  10,C   8,C   7,H  28)     59.2802         0.010220   
    130. D(O  10,C   8,C   7,H  27)    -58.7189         0.010220   
    131. D(O  10,C   8,C   7,N   2)   -177.7064         0.010220   
    132. D(O   9,C   8,C   7,H  28)   -119.8622         0.010220   
    133. D(O   9,C   8,C   7,H  27)    122.1387         0.010220   
    134. D(O   9,C   8,C   7,N   2)      3.1512         0.010220   
    135. D(H  29,O  10,C   8,O   9)   -179.5522         0.030745   
    136. D(H  29,O  10,C   8,C   7)      1.2858         0.030745   
    137. D(C  16,N  11,C   0,H  21)    167.9557         0.012360   
    138. D(C  16,N  11,C   0,H  20)     55.6059         0.012360   
    139. D(C  16,N  11,C   0,C   1)    -68.6305         0.012360   
    140. D(C  12,N  11,C   0,H  21)    -72.5190         0.012360   
    141. D(C  12,N  11,C   0,H  20)    175.1311         0.012360   
    142. D(C  12,N  11,C   0,C   1)     50.8947         0.012360   
    143. D(H  31,C  12,N  11,C   0)   -178.8801         0.011898   
    144. D(H  30,C  12,N  11,C  16)     60.6701         0.011898   
    145. D(H  30,C  12,N  11,C   0)    -59.1078         0.011898   
    146. D(C  13,C  12,N  11,C  16)   -176.7916         0.011898   
    147. D(H  31,C  12,N  11,C  16)    -59.1022         0.011898   
    148. D(C  13,C  12,N  11,C   0)     63.4305         0.011898   
    149. D(O  15,C  13,C  12,H  31)    -88.9900         0.010738   
    150. D(O  15,C  13,C  12,H  30)    155.1064         0.010738   
    151. D(O  15,C  13,C  12,N  11)     31.0194         0.010738   
    152. D(O  14,C  13,C  12,H  31)     89.0349         0.010738   
    153. D(O  14,C  13,C  12,H  30)    -26.8687         0.010738   
    154. D(O  14,C  13,C  12,N  11)   -150.9557         0.010738   
    155. D(H  32,O  15,C  13,O  14)    175.7556         0.030506   
    156. D(H  32,O  15,C  13,C  12)     -6.2025         0.030506   
    157. D(H  34,C  16,N  11,C  12)   -165.4901         0.011710   
    158. D(H  34,C  16,N  11,C   0)    -43.5608         0.011710   
    159. D(H  33,C  16,N  11,C  12)    -44.0319         0.011710   
    160. D(H  33,C  16,N  11,C   0)     77.8973         0.011710   
    161. D(C  17,C  16,N  11,C  12)     77.6956         0.011710   
    162. D(C  17,C  16,N  11,C   0)   -160.3751         0.011710   
    163. D(O  19,C  17,C  16,H  34)    -88.5013         0.010682   
    164. D(O  19,C  17,C  16,H  33)    154.5147         0.010682   
    165. D(O  19,C  17,C  16,N  11)     31.2702         0.010682   
    166. D(O  18,C  17,C  16,H  34)     89.3987         0.010682   
    167. D(O  18,C  17,C  16,H  33)    -27.5853         0.010682   
    168. D(O  18,C  17,C  16,N  11)   -150.8298         0.010682   
    169. D(H  35,O  19,C  17,O  18)   -178.8906         0.029695   
    170. D(H  35,O  19,C  17,C  16)     -0.9627         0.029695   
    -----------------------------------------------------------------

Number of atoms                         .... 36
Number of degrees of freedom            .... 170

         *************************************************************
         *                GEOMETRY OPTIMIZATION CYCLE   1            *
         *************************************************************
---------------------------------
CARTESIAN COORDINATES (ANGSTROEM)
---------------------------------
  C      1.181970   -0.273230   -0.380250
  C      0.550450    0.932760    0.375590
  N     -0.919580    1.017800    0.270830
  C     -1.600880   -0.184360    0.815280
  C     -1.965590   -1.129790   -0.326520
  O     -1.531120   -2.269040   -0.428900
  O     -2.799750   -0.580750   -1.239910
  C     -1.426340    2.259890    0.896690
  C     -2.852850    2.558350    0.420980
  O     -3.498830    1.830060   -0.325480
  O     -3.356240    3.708950    0.919390
  N      2.667210   -0.309420   -0.550570
  C      3.389730   -0.096900    0.747590
  C      3.115940   -1.201890    1.763610
  O      3.139800   -1.030320    2.973140
  O      2.883920   -2.407780    1.197610
  C      3.069080    0.787210   -1.496680
  C      4.452060    0.516400   -2.083690
  O      5.232060    1.384520   -2.440740
  O      4.706110   -0.809230   -2.209100
  H      0.729550   -0.347130   -1.378320
  H      0.886280   -1.196490    0.128200
  H      0.969370    1.852340   -0.048820
  H      0.842370    0.901950    1.432590
  H     -2.537480    0.049530    1.336200
  H     -0.979930   -0.714160    1.547350
  H     -3.046760    0.351960   -1.013110
  H     -0.815540    3.112750    0.577930
  H     -1.410260    2.189370    1.989820
  H     -2.749240    4.210350    1.497070
  H      3.128370    0.866490    1.198460
  H      4.472210   -0.110720    0.576170
  H      2.839850   -2.319000    0.223140
  H      3.075890    1.764820   -1.002460
  H      2.385880    0.826020   -2.353290
  H      3.929940   -1.304620   -1.871590

----------------------------
CARTESIAN COORDINATES (A.U.)
----------------------------
  NO LB      ZA    FRAG     MASS         X           Y           Z
   0 C     6.0000    0    12.011    2.233600   -0.516330   -0.718568
   1 C     6.0000    0    12.011    1.040200    1.762661    0.709762
   2 N     7.0000    0    14.007   -1.737754    1.923363    0.511795
   3 C     6.0000    0    12.011   -3.025225   -0.348390    1.540656
   4 C     6.0000    0    12.011   -3.714427   -2.134994   -0.617033
   5 O     8.0000    0    15.999   -2.893397   -4.287864   -0.810504
   6 O     8.0000    0    15.999   -5.290761   -1.097458   -2.343090
   7 C     6.0000    0    12.011   -2.695392    4.270573    1.694499
   8 C     6.0000    0    12.011   -5.391105    4.834581    0.795537
   9 O     8.0000    0    15.999   -6.611830    3.458312   -0.615068
  10 O     8.0000    0    15.999   -6.342374    7.008900    1.737395
  11 N     7.0000    0    14.007    5.040296   -0.584719   -1.040427
  12 C     6.0000    0    12.011    6.405661   -0.183114    1.412740
  13 C     6.0000    0    12.011    5.888273   -2.271243    3.332740
  14 O     8.0000    0    15.999    5.933362   -1.947023    5.618420
  15 O     8.0000    0    15.999    5.449819   -4.550045    2.263155
  16 C     6.0000    0    12.011    5.799721    1.487611   -2.828315
  17 C     6.0000    0    12.011    8.413174    0.975855   -3.937603
  18 O     8.0000    0    15.999    9.887161    2.616364   -4.612330
  19 O     8.0000    0    15.999    8.893259   -1.529223   -4.174594
  20 H     1.0000    0     1.008    1.378650   -0.655981   -2.604647
  21 H     1.0000    0     1.008    1.674826   -2.261038    0.242263
  22 H     1.0000    0     1.008    1.831844    3.500415   -0.092256
  23 H     1.0000    0     1.008    1.591849    1.704438    2.707203
  24 H     1.0000    0     1.008   -4.795142    0.093598    2.525052
  25 H     1.0000    0     1.008   -1.851799   -1.349567    2.924068
  26 H     1.0000    0     1.008   -5.757542    0.665108   -1.914500
  27 H     1.0000    0     1.008   -1.541147    5.882245    1.092129
  28 H     1.0000    0     1.008   -2.665005    4.137310    3.760215
  29 H     1.0000    0     1.008   -5.195311    7.956408    2.829052
  30 H     1.0000    0     1.008    5.911763    1.637429    2.264761
  31 H     1.0000    0     1.008    8.451252   -0.209230    1.088804
  32 H     1.0000    0     1.008    5.366539   -4.382275    0.421673
  33 H     1.0000    0     1.008    5.812590    3.335026   -1.894375
  34 H     1.0000    0     1.008    4.508660    1.560952   -4.447074
  35 H     1.0000    0     1.008    7.426510   -2.465375   -3.536793

--------------------------------
INTERNAL COORDINATES (ANGSTROEM)
--------------------------------
 C      0   0   0     0.000000000000     0.00000000     0.00000000
 C      1   0   0     1.557088146541     0.00000000     0.00000000
 N      2   1   0     1.476209558328   114.45946109     0.00000000
 C      3   2   1     1.485188256788   112.59193945    59.85969482
 C      4   3   2     1.526616686991   109.67534867   261.66937355
 O      5   4   3     1.223575256288   123.66727687   118.45831156
 O      5   4   3     1.353347375695   113.62778819   299.74343874
 C      3   2   1     1.480301998006   111.05326162   185.75282452
 C      8   3   2     1.533071803863   110.53020908   162.57067212
 O      9   8   3     1.226743255983   124.27841830     3.15116193
 O      9   8   3     1.351182585811   113.45198032   182.29359327
 N      1   2   3     1.495411808199   118.47983568   168.81862233
 C     12   1   2     1.500806212141   112.09870507    50.89470884
 C     13  12   1     1.525863855198   112.76972957    63.43052727
 O     14  13  12     1.221870854632   123.63848944   209.04432927
 O     14  13  12     1.352168618368   113.44685722    31.01940241
 C     12   1   2     1.503070519270   108.63765726   291.36947848
 C     17  12   1     1.526614711248   110.78247889   199.62491038
 O     18  17  12     1.220457716146   124.42206303   209.17024352
 O     18  17  12     1.355567765735   112.26107350    31.27023195
 H      1   2   3     1.098311791478   109.03597891    45.24340048
 H      1   2   3     1.094697677992   108.55468682   291.70852511
 H      2   1   3     1.096013316936   107.86932021   240.10026102
 H      2   1   3     1.097002981992   109.75738506   123.67061224
 H      4   3   2     1.096941994136   113.15220881   142.98029769
 H      4   3   2     1.096445815989   112.09135534    23.64639595
 H      7   5   4     0.991160998123   112.39177526   359.51166454
 H      8   3   2     1.096382577935   109.82014161    45.88649022
 H      8   3   2     1.095520348373   111.27423815   284.61807918
 H     11   9   8     0.976506601309   115.07935613     1.28582851
 H     13  12   1     1.095314155208   111.45237971   300.89218305
 H     13  12   1     1.096056001854   109.77900811   181.11985881
 H     16  14  13     0.979497745888   110.07961627   353.79750418
 H     17  12   1     1.095454744204   111.64090440    77.89733704
 H     17  12   1     1.096380019975   110.54939060   316.43915520
 H     20  18  17     0.980695733191   108.28952803   359.03727074

---------------------------
INTERNAL COORDINATES (A.U.)
---------------------------
 C      0   0   0     0.000000000000     0.00000000     0.00000000
 C      1   0   0     2.942470163338     0.00000000     0.00000000
 N      2   1   0     2.789631781517   114.45946109     0.00000000
 C      3   2   1     2.806599062645   112.59193945    59.85969482
 C      4   3   2     2.884887449888   109.67534867   261.66937355
 O      5   4   3     2.312222138627   123.66727687   118.45831156
 O      5   4   3     2.557455904124   113.62778819   299.74343874
 C      3   2   1     2.797365371727   111.05326162   185.75282452
 C      8   3   2     2.897085852938   110.53020908   162.57067212
 O      9   8   3     2.318208790443   124.27841830     3.15116193
 O      9   8   3     2.553365044107   113.45198032   182.29359327
 N      1   2   3     2.825918774927   118.47983568   168.81862233
 C     12   1   2     2.836112721034   112.09870507    50.89470884
 C     13  12   1     2.883464803974   112.76972957    63.43052727
 O     14  13  12     2.309001286275   123.63848944   209.04432927
 O     14  13  12     2.555228375599   113.44685722    31.01940241
 C     12   1   2     2.840391641392   108.63765726   291.36947848
 C     17  12   1     2.884883716275   110.78247889   199.62491038
 O     18  17  12     2.306330841547   124.42206303   209.17024352
 O     18  17  12     2.561651833211   112.26107350    31.27023195
 H      1   2   3     2.075508495550   109.03597891    45.24340048
 H      1   2   3     2.068678810843   108.55468682   291.70852511
 H      2   1   3     2.071165008139   107.86932021   240.10026102
 H      2   1   3     2.073035204060   109.75738506   123.67061224
 H      4   3   2     2.072919953715   113.15220881   142.98029769
 H      4   3   2     2.071982312903   112.09135534    23.64639595
 H      7   5   4     1.873022841076   112.39177526   359.51166454
 H      8   3   2     2.071862810300   109.82014161    45.88649022
 H      8   3   2     2.070233432564   111.27423815   284.61807918
 H     11   9   8     1.845330044440   115.07935613     1.28582851
 H     13  12   1     2.069843783951   111.45237971   300.89218305
 H     13  12   1     2.071245670945   109.77900811   181.11985881
 H     16  14  13     1.850982488522   110.07961627   353.79750418
 H     17  12   1     2.070109458651   111.64090440    77.89733704
 H     17  12   1     2.071857976456   110.54939060   316.43915520
 H     20  18  17     1.853246356437   108.28952803   359.03727074

---------------------
BASIS SET INFORMATION
---------------------
There are 4 groups of distinct atoms

 Group   1 Type C   : 7s4p1d contracted to 3s2p1d pattern {511/31/1}
 Group   2 Type N   : 7s4p1d contracted to 3s2p1d pattern {511/31/1}
 Group   3 Type O   : 7s4p1d contracted to 3s2p1d pattern {511/31/1}
 Group   4 Type H   : 4s1p contracted to 2s1p pattern {31/1}

Atom   0C    basis set group =>   1
Atom   1C    basis set group =>   1
Atom   2N    basis set group =>   2
Atom   3C    basis set group =>   1
Atom   4C    basis set group =>   1
Atom   5O    basis set group =>   3
Atom   6O    basis set group =>   3
Atom   7C    basis set group =>   1
Atom   8C    basis set group =>   1
Atom   9O    basis set group =>   3
Atom  10O    basis set group =>   3
Atom  11N    basis set group =>   2
Atom  12C    basis set group =>   1
Atom  13C    basis set group =>   1
Atom  14O    basis set group =>   3
Atom  15O    basis set group =>   3
Atom  16C    basis set group =>   1
Atom  17C    basis set group =>   1
Atom  18O    basis set group =>   3
Atom  19O    basis set group =>   3
Atom  20H    basis set group =>   4
Atom  21H    basis set group =>   4
Atom  22H    basis set group =>   4
Atom  23H    basis set group =>   4
Atom  24H    basis set group =>   4
Atom  25H    basis set group =>   4
Atom  26H    basis set group =>   4
Atom  27H    basis set group =>   4
Atom  28H    basis set group =>   4
Atom  29H    basis set group =>   4
Atom  30H    basis set group =>   4
Atom  31H    basis set group =>   4
Atom  32H    basis set group =>   4
Atom  33H    basis set group =>   4
Atom  34H    basis set group =>   4
Atom  35H    basis set group =>   4
---------------------------------
AUXILIARY/J BASIS SET INFORMATION
---------------------------------
There are 4 groups of distinct atoms

 Group   1 Type C   : 12s5p4d2f1g contracted to 6s4p3d1f1g pattern {711111/2111/211/2/1}
 Group   2 Type N   : 12s5p4d2f1g contracted to 6s4p3d1f1g pattern {711111/2111/211/2/1}
 Group   3 Type O   : 12s5p4d2f1g contracted to 6s4p3d1f1g pattern {711111/2111/211/2/1}
 Group   4 Type H   : 5s2p1d contracted to 3s1p1d pattern {311/2/1}

Atom   0C    basis set group =>   1
Atom   1C    basis set group =>   1
Atom   2N    basis set group =>   2
Atom   3C    basis set group =>   1
Atom   4C    basis set group =>   1
Atom   5O    basis set group =>   3
Atom   6O    basis set group =>   3
Atom   7C    basis set group =>   1
Atom   8C    basis set group =>   1
Atom   9O    basis set group =>   3
Atom  10O    basis set group =>   3
Atom  11N    basis set group =>   2
Atom  12C    basis set group =>   1
Atom  13C    basis set group =>   1
Atom  14O    basis set group =>   3
Atom  15O    basis set group =>   3
Atom  16C    basis set group =>   1
Atom  17C    basis set group =>   1
Atom  18O    basis set group =>   3
Atom  19O    basis set group =>   3
Atom  20H    basis set group =>   4
Atom  21H    basis set group =>   4
Atom  22H    basis set group =>   4
Atom  23H    basis set group =>   4
Atom  24H    basis set group =>   4
Atom  25H    basis set group =>   4
Atom  26H    basis set group =>   4
Atom  27H    basis set group =>   4
Atom  28H    basis set group =>   4
Atom  29H    basis set group =>   4
Atom  30H    basis set group =>   4
Atom  31H    basis set group =>   4
Atom  32H    basis set group =>   4
Atom  33H    basis set group =>   4
Atom  34H    basis set group =>   4
Atom  35H    basis set group =>   4
------------------------------------------------------------------------------
                           ORCA GTO INTEGRAL CALCULATION
                           -- RI-GTO INTEGRALS CHOSEN --
------------------------------------------------------------------------------
------------------------------------------------------------------------------
                   ___                                                        
                  /   \      - P O W E R E D   B Y -                         
                 /     \                                                     
                 |  |  |   _    _      __       _____    __    __             
                 |  |  |  | |  | |    /  \     |  _  \  |  |  /  |          
                  \  \/   | |  | |   /    \    | | | |  |  | /  /          
                 / \  \   | |__| |  /  /\  \   | |_| |  |  |/  /          
                |  |  |   |  __  | /  /__\  \  |    /   |      \           
                |  |  |   | |  | | |   __   |  |    \   |  |\   \          
                \     /   | |  | | |  |  |  |  | |\  \  |  | \   \       
                 \___/    |_|  |_| |__|  |__|  |_| \__\ |__|  \__/        
                                                                              
                      - O R C A' S   B I G   F R I E N D -                    
                                      &                                       
                       - I N T E G R A L  F E E D E R -                       
                                                                              
 v1 FN, 2020, v2 2021                                                         
------------------------------------------------------------------------------


Reading SHARK input file EDTA_DFT.SHARKINP.tmp ... SHARK General Contraction Test:  Segmented basis detected
   -> Pre-screening matrix *NOT* found on disk - recalculating with NShells=168
   -> Leaving CheckPreScreeningMatrix
ok
----------------------
SHARK INTEGRAL PACKAGE
----------------------

Number of atoms                             ...     36
Number of basis functions                   ...    360
Number of shells                            ...    168
Maximum angular momentum                    ...      2
Integral batch strategy                     ... SHARK/LIBINT Hybrid
RI-J (if used) integral strategy            ... SPLIT-RIJ (Revised 2003 algorithm where possible)
Printlevel                                  ...      2
Contraction scheme used                     ... SEGMENTED contraction
Coulomb Range Separation                    ... NOT USED
Exchange Range Separation                   ... NOT USED
Finite Nucleus Model                        ... NOT USED
Auxiliary Coulomb fitting basis             ... AVAILABLE
   # of basis functions in Aux-J            ...   1156
   # of shells in Aux-J                     ...    380
   Maximum angular momentum in Aux-J        ...      4
Auxiliary J/K fitting basis                 ... NOT available
Auxiliary Correlation fitting basis         ... NOT available
Auxiliary 'external' fitting basis          ... NOT available
Integral threshold                          ...     2.500000e-11
Primitive cut-off                           ...     2.500000e-12
Primitive pair pre-selection threshold      ...     2.500000e-12

Calculating pre-screening integrals         ... done (  0.1 sec) Dimension = 168
Organizing shell pair data                  ... done (  0.1 sec)
Shell pair information
Total number of shell pairs                 ...     14196
Shell pairs after pre-screening             ...     10558
Total number of primitive shell pairs       ...     51668
Primitive shell pairs kept                  ...     24988
          la=0 lb=0:   3305 shell pairs
          la=1 lb=0:   3946 shell pairs
          la=1 lb=1:   1229 shell pairs
          la=2 lb=0:   1235 shell pairs
          la=2 lb=1:    731 shell pairs
          la=2 lb=2:    112 shell pairs

Calculating one electron integrals          ... done (  0.1 sec)
Calculating RI/J V-Matrix + Cholesky decomp.... done (  0.1 sec)
Calculating Nuclear repulsion               ... done (  0.0 sec) ENN=   1657.566355776203 Eh

SHARK setup successfully completed in   0.5 seconds

Maximum memory used throughout the entire GTOINT-calculation: 65.2 MB
-------------------------------------------------------------------------------
                                 ORCA SCF
-------------------------------------------------------------------------------

------------
SCF SETTINGS
------------
Hamiltonian:
 Density Functional     Method          .... DFT(GTOs)
 Exchange Functional    Exchange        .... B88
   X-Alpha parameter    XAlpha          ....  0.666667
   Becke's b parameter  XBeta           ....  0.004200
 Correlation Functional Correlation     .... LYP
 LDA part of GGA corr.  LDAOpt          .... VWN-5
 Gradients option       PostSCFGGA      .... off
 Hybrid DFT is turned on
   Fraction HF Exchange ScalHFX         ....  0.200000
   Scaling of DF-GGA-X  ScalDFX         ....  0.720000
   Scaling of DF-GGA-C  ScalDFC         ....  0.810000
   Scaling of DF-LDA-C  ScalLDAC        ....  1.000000
   Perturbative correction              ....  0.000000
   Density functional embedding theory  .... OFF
   NL short-range parameter             ....  4.800000
 RI-approximation to the Coulomb term is turned on
   Number of AuxJ basis functions       .... 1156
   RIJ-COSX (HFX calculated with COS-X)).... on


General Settings:
 Integral files         IntName         .... EDTA_DFT
 Hartree-Fock type      HFTyp           .... RHF
 Total Charge           Charge          ....    0
 Multiplicity           Mult            ....    1
 Number of Electrons    NEL             ....  154
 Basis Dimension        Dim             ....  360
 Nuclear Repulsion      ENuc            ....   1657.5663557762 Eh

Convergence Acceleration:
 DIIS                   CNVDIIS         .... on
   Start iteration      DIISMaxIt       ....    12
   Startup error        DIISStart       ....  0.200000
   # of expansion vecs  DIISMaxEq       ....     5
   Bias factor          DIISBfac        ....   1.050
   Max. coefficient     DIISMaxC        ....  10.000
 Trust-Rad. Augm. Hess. CNVTRAH         .... auto
   Auto Start mean grad. ratio tolernc. ....  1.125000
   Auto Start start iteration           ....    20
   Auto Start num. interpolation iter.  ....    10
   Max. Number of Micro iterations      ....    16
   Max. Number of Macro iterations      .... Maxiter - #DIIS iter
   Number of Davidson start vectors     ....     2
   Converg. threshold I  (grad. norm)   ....   1.000e-05
   Converg. threshold II (energy diff.) ....   1.000e-08
   Grad. Scal. Fac. for Micro threshold ....   0.100
   Minimum threshold for Micro iter.    ....   0.010
   NR start threshold (gradient norm)   ....   0.001
   Initial trust radius                 ....   0.400
   Minimum AH scaling param. (alpha)    ....   1.000
   Maximum AH scaling param. (alpha)    .... 1000.000
   Orbital update algorithm             .... Taylor
   White noise on init. David. guess    .... on
   Maximum white noise                  ....   0.010
   Quad. conv. algorithm                .... NR
 SOSCF                  CNVSOSCF        .... on
   Start iteration      SOSCFMaxIt      ....   150
   Startup grad/error   SOSCFStart      ....  0.003300
 Level Shifting         CNVShift        .... on
   Level shift para.    LevelShift      ....    0.2500
   Turn off err/grad.   ShiftErr        ....    0.0010
 Zerner damping         CNVZerner       .... off
 Static damping         CNVDamp         .... on
   Fraction old density DampFac         ....    0.7000
   Max. Damping (<1)    DampMax         ....    0.9800
   Min. Damping (>=0)   DampMin         ....    0.0000
   Turn off err/grad.   DampErr         ....    0.1000
 Fernandez-Rico         CNVRico         .... off

SCF Procedure:
 Maximum # iterations   MaxIter         ....   125
 SCF integral mode      SCFMode         .... Direct
   Integral package                     .... SHARK and LIBINT hybrid scheme
 Reset frequency        DirectResetFreq ....    20
 Integral Threshold     Thresh          ....  2.500e-11 Eh
 Primitive CutOff       TCut            ....  2.500e-12 Eh

Convergence Tolerance:
 Convergence Check Mode ConvCheckMode   .... Total+1el-Energy
 Convergence forced     ConvForced      .... 0
 Energy Change          TolE            ....  1.000e-08 Eh
 1-El. energy change                    ....  1.000e-05 Eh
 Orbital Gradient       TolG            ....  1.000e-05
 Orbital Rotation angle TolX            ....  1.000e-05
 DIIS Error             TolErr          ....  5.000e-07


Diagonalization of the overlap matrix:
Smallest eigenvalue                        ... 1.586e-03
Time for diagonalization                   ...    0.022 sec
Threshold for overlap eigenvalues          ... 1.000e-08
Number of eigenvalues below threshold      ... 0
Time for construction of square roots      ...    0.012 sec
Total time needed                          ...    0.035 sec

SHARK General Contraction Test:  Segmented basis detected
   -> Pre-screening matrix found on disk - Trying to read with NShells=168
   -> Passing Pre-screening matrix on to SHARK ...ok
   -> Leaving CheckPreScreeningMatrix
----------------------
SHARK INTEGRAL PACKAGE
----------------------

Number of atoms                             ...     36
Number of basis functions                   ...    360
Number of shells                            ...    168
Maximum angular momentum                    ...      2
Integral batch strategy                     ... SHARK/LIBINT Hybrid
RI-J (if used) integral strategy            ... SPLIT-RIJ (Revised 2003 algorithm where possible)
Printlevel                                  ...      2
Contraction scheme used                     ... SEGMENTED contraction
Coulomb Range Separation                    ... NOT USED
Exchange Range Separation                   ... NOT USED
Finite Nucleus Model                        ... NOT USED
Auxiliary Coulomb fitting basis             ... AVAILABLE
   # of basis functions in Aux-J            ...   1156
   # of shells in Aux-J                     ...    380
   Maximum angular momentum in Aux-J        ...      4
Auxiliary J/K fitting basis                 ... NOT available
Auxiliary Correlation fitting basis         ... NOT available
Auxiliary 'external' fitting basis          ... NOT available
Integral threshold                          ...     2.500000e-11
Primitive cut-off                           ...     2.500000e-12
Primitive pair pre-selection threshold      ...     2.500000e-12

Time for model grid setup =    0.796 sec

------------------------------
INITIAL GUESS: MODEL POTENTIAL
------------------------------
Loading Hartree-Fock densities                     ... done
Calculating cut-offs                               ... done
Initializing the effective Hamiltonian             ... done
Setting up the integral package (SHARK)            ... done
Starting the Coulomb interaction                   ...     -> Generating integrals - 
    -> L=0 0 :     0.267 sec done=    932456 skipped=     30298 prim-skipped=         0
    -> L=1 0 :     0.365 sec done=   1110428 skipped=     36532 prim-skipped=         0
    -> L=1 1 :     0.134 sec done=    342778 skipped=      9016 prim-skipped=         0
    -> L=2 0 :     0.111 sec done=    341682 skipped=     14672 prim-skipped=         0
    -> L=2 1 :     0.105 sec done=    201208 skipped=      7666 prim-skipped=         0
    -> L=2 2 :     0.027 sec done=     30270 skipped=       956 prim-skipped=         0
done (   1.0 sec)
Reading the grid                                   ... done
Mapping shells                                     ... done
Starting the XC term evaluation                    ... done (   0.8 sec)
  promolecular density results
     # of electrons  =    153.994687768
     EX              =   -134.883260417
     EC              =     -5.383949864
     EX+EC           =   -140.267210281
Transforming the Hamiltonian                       ... done (   0.0 sec)
Diagonalizing the Hamiltonian                      ... done (   0.0 sec)
Back transforming the eigenvectors                 ... done (   0.0 sec)
Now organizing SCF variables                       ... done
                      ------------------
                      INITIAL GUESS DONE (   2.6 sec)
                      ------------------
-------------------
DFT GRID GENERATION
-------------------

General Integration Accuracy     IntAcc      ... 4.388
Radial Grid Type                 RadialGrid  ... OptM3 with GC (2021)
Angular Grid (max. ang.)         AngularGrid ... 4 (Lebedev-302)
Angular grid pruning method      GridPruning ... 4 (adaptive)
Weight generation scheme         WeightScheme... Becke
Basis function cutoff            BFCut       ... 1.0000e-11
Integration weight cutoff        WCut        ... 1.0000e-14
Angular grids for H and He will be reduced by one unit
Partially contracted basis set               ... off
Rotationally invariant grid construction     ... off

Total number of grid points                  ...   170585
Total number of batches                      ...     2684
Average number of points per batch           ...       63
Average number of grid points per atom       ...     4738
Time for grid setup =    2.845 sec

--------------------
COSX GRID GENERATION
--------------------

GRIDX 1
-------
General Integration Accuracy     IntAcc      ... 3.816
Radial Grid Type                 RadialGrid  ... OptM3 with GC (2021)
Angular Grid (max. ang.)         AngularGrid ... 1 (Lebedev-50)
Angular grid pruning method      GridPruning ... 4 (adaptive)
Weight generation scheme         WeightScheme... Becke
Basis function cutoff            BFCut       ... 1.0000e-11
Integration weight cutoff        WCut        ... 1.0000e-14
Angular grids for H and He will be reduced by one unit
Partially contracted basis set               ... on
Rotationally invariant grid construction     ... off

Total number of grid points                  ...    21610
Total number of batches                      ...      358
Average number of points per batch           ...       60
Average number of grid points per atom       ...      600
UseSFitting                                  ... on

GRIDX 2
-------
General Integration Accuracy     IntAcc      ... 4.020
Radial Grid Type                 RadialGrid  ... OptM3 with GC (2021)
Angular Grid (max. ang.)         AngularGrid ... 2 (Lebedev-110)
Angular grid pruning method      GridPruning ... 4 (adaptive)
Weight generation scheme         WeightScheme... Becke
Basis function cutoff            BFCut       ... 1.0000e-11
Integration weight cutoff        WCut        ... 1.0000e-14
Angular grids for H and He will be reduced by one unit
Partially contracted basis set               ... on
Rotationally invariant grid construction     ... off

Total number of grid points                  ...    47023
Total number of batches                      ...      754
Average number of points per batch           ...       62
Average number of grid points per atom       ...     1306
UseSFitting                                  ... on

GRIDX 3
-------
General Integration Accuracy     IntAcc      ... 4.338
Radial Grid Type                 RadialGrid  ... OptM3 with GC (2021)
Angular Grid (max. ang.)         AngularGrid ... 3 (Lebedev-194)
Angular grid pruning method      GridPruning ... 4 (adaptive)
Weight generation scheme         WeightScheme... Becke
Basis function cutoff            BFCut       ... 1.0000e-11
Integration weight cutoff        WCut        ... 1.0000e-14
Angular grids for H and He will be reduced by one unit
Partially contracted basis set               ... on
Rotationally invariant grid construction     ... off

Total number of grid points                  ...   102809
Total number of batches                      ...     1625
Average number of points per batch           ...       63
Average number of grid points per atom       ...     2856
UseSFitting                                  ... on

Time for X-Grid setup             =    3.639 sec


--------------------
CPCM SOLVATION MODEL
--------------------
CPCM parameters:
  Epsilon                                         ...      69.0000
  Refrac                                          ...       1.3400
  Rsolv                                           ...       1.3000
  Surface type                                    ... GAUSSIAN VDW
  Epsilon function type                           ...         CPCM
Radii:
 Radius for C  used is    3.8550 Bohr (=   2.0400 Ang.)
 Radius for N  used is    3.5149 Bohr (=   1.8600 Ang.)
 Radius for O  used is    3.4469 Bohr (=   1.8240 Ang.)
 Radius for H  used is    2.4944 Bohr (=   1.3200 Ang.)
Calculating surface                               ...        done! (  0.0s)
GEPOL surface points                              ...         1888
GEPOL Volume                                      ...    2160.8505
GEPOL Surface-area                                ...    1140.7134
Calculating surface distance matrix               ...        done! (  0.0s)
Performing Cholesky decomposition & store         ...        done! (  0.1s)
Overall time for CPCM initialization              ...                 0.2s
--------------
SCF ITERATIONS
--------------
               ***  Starting incremental Fock matrix formation  ***
==>> SHARK/AuxDens: NDens=1 Thresh =     2.500000e-11 TCut=    2.500000e-12 Lmax=2 LmaxAux=4
    -> Making Hermite density - ok     0.015 sec
    -> Making Aux-basis density - (lmax=2)
    -> L=0 0:    0.226 sec done=   1089894 ( 86.9%) skipped=    165014 
    -> L=1 0:    0.379 sec done=   1292605 ( 86.6%) skipped=    200302 
    -> L=1 1:    0.183 sec done=    399881 ( 88.1%) skipped=     54219 
    -> L=2 0:    0.123 sec done=    374082 ( 80.1%) skipped=     93197 
    -> L=2 1:    0.119 sec done=    215504 ( 79.4%) skipped=     55816 
    -> L=2 2:    0.024 sec done=     33446 ( 82.3%) skipped=      7214 
    -> Aux basis density formed in    1.1 sec
    -> Solving linear equations - ok (   0.0 sec)
        Auxbasis Hermite Density:
        P|s>                     ...  0.000
        P|p>                     ...  0.000
        P|d>                     ...  0.000
        P|f>                     ...  0.000
        P|g>                     ...  0.000
        Building the Coulomb matrix: 
        J|ss>                          ... done (  0.2 sec) ndone=  5233076 nskipped1=   236023 nskipped2=   293625
        J|ps>                          ... done (  0.3 sec) ndone=  5304413 nskipped1=   211420 nskipped2=   347368
        J|pp>                          ... done (  0.1 sec) ndone=  1473585 nskipped1=    26308 nskipped2=    61105
        J|ds>                          ... done (  0.1 sec) ndone=  1044057 nskipped1=    54158 nskipped2=    88391
        J|dp>                          ... done (  0.1 sec) ndone=   557475 nskipped1=    19921 nskipped2=    27280
        J|dd>                          ... done (  0.0 sec) ndone=    58902 nskipped1=     3260 nskipped2=     2109
        Coulomb matrix built in   0.8 sec

        Total time for Split-RI-J                ...    1.927 sec
          (0) Prelude                            ...    0.000 sec
          (1) Hermite density                    ...    0.000 sec
          (2) Aux basis density                  ...    0.000 sec (inner=  0.0)
          (3) Linear equation solution           ...    0.000 sec
          (4) J-Matrix construction              ...    0.841 sec (inner=  0.8)
        ---------------------------------------------------------

                         ----------------------------
                         !        ITERATION     0   !
                         ----------------------------
   Total Energy        :   -1100.036460436160 Eh
   Energy Change       :   -1100.036460436160 Eh
   MAX-DP              :       0.099158399161
   RMS-DP              :       0.002023589436
   Actual Damping      :       0.7000
   Actual Level Shift  :       0.2500 Eh
   Int. Num. El.       :   153.99999952 (UP=   76.99999976 DN=   76.99999976)
   Exchange            :  -110.29009163
   Correlation         :    -6.37214335

==>> SHARK/AuxDens: NDens=1 Thresh =     2.500000e-11 TCut=    2.500000e-12 Lmax=2 LmaxAux=4
    -> Making Hermite density - ok     0.045 sec
    -> Making Aux-basis density - (lmax=2)
    -> L=0 0:    0.431 sec done=   1040920 ( 82.9%) skipped=    213988 
    -> L=1 0:    0.779 sec done=   1222922 ( 81.9%) skipped=    269985 
    -> L=1 1:    0.335 sec done=    374020 ( 82.4%) skipped=     80080 
    -> L=2 0:    0.260 sec done=    354078 ( 75.8%) skipped=    113201 
    -> L=2 1:    0.237 sec done=    209523 ( 77.2%) skipped=     61797 
    -> L=2 2:    0.075 sec done=     30876 ( 75.9%) skipped=      9784 
    -> Aux basis density formed in    2.1 sec
    -> Solving linear equations - ok (   0.0 sec)
        Auxbasis Hermite Density:
        P|s>                     ... -0.000
        P|p>                     ... -0.000
        P|d>                     ... -0.000
        P|f>                     ... -0.000
        P|g>                     ... -0.000
        Building the Coulomb matrix: 
        J|ss>                          ... done (  0.4 sec) ndone=  5047593 nskipped1=   388086 nskipped2=   167285
        J|ps>                          ... done (  0.8 sec) ndone=  5134624 nskipped1=   363558 nskipped2=   210601
        J|pp>                          ... done (  0.3 sec) ndone=  1437759 nskipped1=    54219 nskipped2=    44800
        J|ds>                          ... done (  0.2 sec) ndone=   995947 nskipped1=    96931 nskipped2=    50602
        J|dp>                          ... done (  0.2 sec) ndone=   533619 nskipped1=    37073 nskipped2=    17200
        J|dd>                          ... done (  0.0 sec) ndone=    55606 nskipped1=     5675 nskipped2=      240
        Coulomb matrix built in   1.9 sec

        Total time for Split-RI-J                ...    4.083 sec
          (0) Prelude                            ...    0.000 sec
          (1) Hermite density                    ...    0.000 sec
          (2) Aux basis density                  ...    0.000 sec (inner=  0.0)
          (3) Linear equation solution           ...    0.000 sec
          (4) J-Matrix construction              ...    1.899 sec (inner=  1.9)
        ---------------------------------------------------------

                         ----------------------------
                         !        ITERATION     1   !
                         ----------------------------
   Total Energy        :   -1100.342148519738 Eh
   Energy Change       :      -0.305688083578 Eh
   MAX-DP              :       0.061496642264
   RMS-DP              :       0.001230654106
   Actual Damping      :       0.7000
   Actual Level Shift  :       0.2500 Eh
   Int. Num. El.       :   154.00000317 (UP=   77.00000158 DN=   77.00000158)
   Exchange            :  -109.34574767
   Correlation         :    -6.34675730

==>> SHARK/AuxDens: NDens=1 Thresh =     2.500000e-11 TCut=    2.500000e-12 Lmax=2 LmaxAux=4
    -> Making Hermite density - ok     0.071 sec
    -> Making Aux-basis density - (lmax=2)
    -> L=0 0:    0.410 sec done=   1030496 ( 82.1%) skipped=    224412 
    -> L=1 0:    0.685 sec done=   1209065 ( 81.0%) skipped=    283842 
    -> L=1 1:    0.329 sec done=    368291 ( 81.1%) skipped=     85809 
    -> L=2 0:    0.272 sec done=    346592 ( 74.2%) skipped=    120687 
    -> L=2 1:    0.222 sec done=    206971 ( 76.3%) skipped=     64349 
    -> L=2 2:    0.083 sec done=     30144 ( 74.1%) skipped=     10516 
    -> Aux basis density formed in    2.0 sec
    -> Solving linear equations - ok (   0.0 sec)
        Auxbasis Hermite Density:
        P|s>                     ... -0.000
        P|p>                     ... -0.000
        P|d>                     ... -0.000
        P|f>                     ... -0.000
        P|g>                     ... -0.000
        Building the Coulomb matrix: 
        J|ss>                          ... done (  0.5 sec) ndone=  4990370 nskipped1=   421978 nskipped2=   146232
        J|ps>                          ... done (  0.7 sec) ndone=  5079747 nskipped1=   397679 nskipped2=   187206
        J|pp>                          ... done (  0.3 sec) ndone=  1425652 nskipped1=    61395 nskipped2=    40154
        J|ds>                          ... done (  0.2 sec) ndone=   981976 nskipped1=   105765 nskipped2=    44834
        J|dp>                          ... done (  0.2 sec) ndone=   526777 nskipped1=    40727 nskipped2=    15939
        J|dd>                          ... done (  0.0 sec) ndone=    55103 nskipped1=     5995 nskipped2=      129
        Coulomb matrix built in   1.9 sec

        Total time for Split-RI-J                ...    3.997 sec
          (0) Prelude                            ...    0.000 sec
          (1) Hermite density                    ...    0.000 sec
          (2) Aux basis density                  ...    0.000 sec (inner=  0.0)
          (3) Linear equation solution           ...    0.000 sec
          (4) J-Matrix construction              ...    1.905 sec (inner=  1.9)
        ---------------------------------------------------------
                               ***Turning on DIIS***

                         ----------------------------
                         !        ITERATION     2   !
                         ----------------------------
   Total Energy        :   -1100.444566006497 Eh
   Energy Change       :      -0.102417486759 Eh
   MAX-DP              :       0.062596727983
   RMS-DP              :       0.001664065965
   Actual Damping      :       0.0000
   Actual Level Shift  :       0.2500 Eh
   Int. Num. El.       :   154.00000502 (UP=   77.00000251 DN=   77.00000251)
   Exchange            :  -108.80693570
   Correlation         :    -6.33116073
   DIIS-Error          :       0.030346887067

==>> SHARK/AuxDens: NDens=1 Thresh =     2.500000e-11 TCut=    2.500000e-12 Lmax=2 LmaxAux=4
    -> Making Hermite density - ok     0.093 sec
    -> Making Aux-basis density - (lmax=2)
    -> L=0 0:    0.610 sec done=   1040436 ( 82.9%) skipped=    214472 
    -> L=1 0:    1.084 sec done=   1226472 ( 82.2%) skipped=    266435 
    -> L=1 1:    0.520 sec done=    373247 ( 82.2%) skipped=     80853 
    -> L=2 0:    0.298 sec done=    351045 ( 75.1%) skipped=    116234 
    -> L=2 1:    0.388 sec done=    207396 ( 76.4%) skipped=     63924 
    -> L=2 2:    0.021 sec done=     30495 ( 75.0%) skipped=     10165 
    -> Aux basis density formed in    2.9 sec
    -> Solving linear equations - ok (   0.0 sec)
        Auxbasis Hermite Density:
        P|s>                     ...  0.000
        P|p>                     ...  0.000
        P|d>                     ...  0.000
        P|f>                     ...  0.000
        P|g>                     ...  0.000
        Building the Coulomb matrix: 
        J|ss>                          ... done (  0.6 sec) ndone=  5040105 nskipped1=   389367 nskipped2=   159401
        J|ps>                          ... done (  1.0 sec) ndone=  5127866 nskipped1=   364832 nskipped2=   201920
        J|pp>                          ... done (  0.5 sec) ndone=  1436611 nskipped1=    54144 nskipped2=    43248
        J|ds>                          ... done (  0.4 sec) ndone=   993514 nskipped1=    97692 nskipped2=    48044
        J|dp>                          ... done (  0.2 sec) ndone=   532283 nskipped1=    37427 nskipped2=    16592
        J|dd>                          ... done (  0.1 sec) ndone=    55435 nskipped1=     5775 nskipped2=      161
        Coulomb matrix built in   2.8 sec

        Total time for Split-RI-J                ...    5.886 sec
          (0) Prelude                            ...    0.000 sec
          (1) Hermite density                    ...    0.000 sec
          (2) Aux basis density                  ...    0.000 sec (inner=  0.0)
          (3) Linear equation solution           ...    0.000 sec
          (4) J-Matrix construction              ...    2.791 sec (inner=  2.8)
        ---------------------------------------------------------

                         ----------------------------
                         !        ITERATION     3   !
                         ----------------------------
   Total Energy        :   -1100.631383193823 Eh
   Energy Change       :      -0.186817187326 Eh
   MAX-DP              :       0.051300999674
   RMS-DP              :       0.000865870880
   Actual Damping      :       0.0000
   Actual Level Shift  :       0.2500 Eh
   Int. Num. El.       :   154.00000460 (UP=   77.00000230 DN=   77.00000230)
   Exchange            :  -108.14871299
   Correlation         :    -6.30991172
   DIIS-Error          :       0.054772305701
   DIIS coefficients:
      0.59889   0.40111

==>> SHARK/AuxDens: NDens=1 Thresh =     2.500000e-11 TCut=    2.500000e-12 Lmax=2 LmaxAux=4
    -> Making Hermite density - ok     0.024 sec
    -> Making Aux-basis density - (lmax=2)
    -> L=0 0:    0.889 sec done=   1015365 ( 80.9%) skipped=    239543 
    -> L=1 0:    1.707 sec done=   1193754 ( 80.0%) skipped=    299153 
    -> L=1 1:    0.877 sec done=    363868 ( 80.1%) skipped=     90232 
    -> L=2 0:    0.408 sec done=    341282 ( 73.0%) skipped=    125997 
    -> L=2 1:    0.417 sec done=    205231 ( 75.6%) skipped=     66089 
    -> L=2 2:    0.176 sec done=     29746 ( 73.2%) skipped=     10914 
    -> Aux basis density formed in    4.5 sec
    -> Solving linear equations - ok (   0.0 sec)
        Auxbasis Hermite Density:
        P|s>                     ... -0.000
        P|p>                     ... -0.000
        P|d>                     ... -0.000
        P|f>                     ... -0.000
        P|g>                     ... -0.000
        Building the Coulomb matrix: 
        J|ss>                          ... done (  0.8 sec) ndone=  4969092 nskipped1=   452367 nskipped2=   147672
        J|ps>                          ... done (  1.3 sec) ndone=  5057798 nskipped1=   428957 nskipped2=   189604
        J|pp>                          ... done (  0.5 sec) ndone=  1420048 nskipped1=    68272 nskipped2=    41417
        J|ds>                          ... done (  0.4 sec) ndone=   977315 nskipped1=   113248 nskipped2=    44236
        J|dp>                          ... done (  0.2 sec) ndone=   524403 nskipped1=    43577 nskipped2=    16054
        J|dd>                          ... done (  0.1 sec) ndone=    54909 nskipped1=     6227 nskipped2=      120
        Coulomb matrix built in   3.3 sec

        Total time for Split-RI-J                ...    7.807 sec
          (0) Prelude                            ...    0.000 sec
          (1) Hermite density                    ...    0.000 sec
          (2) Aux basis density                  ...    0.000 sec (inner=  0.0)
          (3) Linear equation solution           ...    0.000 sec
          (4) J-Matrix construction              ...    3.291 sec (inner=  3.3)
        ---------------------------------------------------------

                         ----------------------------
                         !        ITERATION     4   !
                         ----------------------------
   Total Energy        :   -1100.661499807696 Eh
   Energy Change       :      -0.030116613873 Eh
   MAX-DP              :       0.010722065425
   RMS-DP              :       0.000243390721
   Actual Damping      :       0.0000
   Actual Level Shift  :       0.2500 Eh
   Int. Num. El.       :   154.00000220 (UP=   77.00000110 DN=   77.00000110)
   Exchange            :  -108.48535932
   Correlation         :    -6.31993920
   DIIS-Error          :       0.015134133279
   DIIS coefficients:
      0.27063   0.12045   0.60892

==>> SHARK/AuxDens: NDens=1 Thresh =     2.500000e-11 TCut=    2.500000e-12 Lmax=2 LmaxAux=4
    -> Making Hermite density - ok     0.092 sec
    -> Making Aux-basis density - (lmax=2)
    -> L=0 0:    1.303 sec done=    974808 ( 77.7%) skipped=    280100 
    -> L=1 0:    2.201 sec done=   1140742 ( 76.4%) skipped=    352165 
    -> L=1 1:    1.188 sec done=    349475 ( 77.0%) skipped=    104625 
    -> L=2 0:    0.606 sec done=    328966 ( 70.4%) skipped=    138313 
    -> L=2 1:    0.519 sec done=    198839 ( 73.3%) skipped=     72481 
    -> L=2 2:    0.177 sec done=     29075 ( 71.5%) skipped=     11585 
    -> Aux basis density formed in    6.0 sec
    -> Solving linear equations - ok (   0.0 sec)
        Auxbasis Hermite Density:
        P|s>                     ... -0.000
        P|p>                     ... -0.000
        P|d>                     ... -0.000
        P|f>                     ... -0.000
        P|g>                     ... -0.000
        Building the Coulomb matrix: 
        J|ss>                          ... done (  1.2 sec) ndone=  4873314 nskipped1=   523568 nskipped2=   126285
        J|ps>                          ... done (  1.8 sec) ndone=  4958339 nskipped1=   505067 nskipped2=   164870
        J|pp>                          ... done (  0.7 sec) ndone=  1398493 nskipped1=    84036 nskipped2=    36762
        J|ds>                          ... done (  0.5 sec) ndone=   954760 nskipped1=   131578 nskipped2=    37655
        J|dp>                          ... done (  0.5 sec) ndone=   514821 nskipped1=    49878 nskipped2=    15273
        J|dd>                          ... done (  0.1 sec) ndone=    54127 nskipped1=     6797 nskipped2=       87
        Coulomb matrix built in   4.8 sec

        Total time for Split-RI-J                ...   10.989 sec
          (0) Prelude                            ...    0.000 sec
          (1) Hermite density                    ...    0.000 sec
          (2) Aux basis density                  ...    0.000 sec (inner=  0.0)
          (3) Linear equation solution           ...    0.000 sec
          (4) J-Matrix construction              ...    4.805 sec (inner=  4.8)
        ---------------------------------------------------------
                      *** Initiating the SOSCF procedure ***
                           *** Shutting down DIIS ***
                      *** Re-Reading the Fockian *** 
                      *** Removing any level shift *** 

                         ----------------------------
                         !        ITERATION     5   !
                         ----------------------------
   Total Energy        :   -1100.663726527673 Eh
   Energy Change       :      -0.002226719977 Eh
   MAX-DP              :       0.002853277999
   RMS-DP              :       0.000065311827
   Orbital gradient    :       0.000689443605
   Orbital Rotation    :       0.000689443605
   Actual Damping      :       0.0000
   Int. Num. El.       :   154.00000224 (UP=   77.00000112 DN=   77.00000112)
   Exchange            :  -108.51833000
   Correlation         :    -6.32179055

               *** Restarting incremental Fock matrix formation ***
==>> SHARK/AuxDens: NDens=1 Thresh =     2.500000e-11 TCut=    2.500000e-12 Lmax=2 LmaxAux=4
    -> Making Hermite density - ok     0.185 sec
    -> Making Aux-basis density - (lmax=2)
    -> L=0 0:    1.112 sec done=   1094417 ( 87.2%) skipped=    160491 
    -> L=1 0:    2.003 sec done=   1298478 ( 87.0%) skipped=    194429 
    -> L=1 1:    0.984 sec done=    400909 ( 88.3%) skipped=     53191 
    -> L=2 0:    0.514 sec done=    376908 ( 80.7%) skipped=     90371 
    -> L=2 1:    0.495 sec done=    217025 ( 80.0%) skipped=     54295 
    -> L=2 2:    0.190 sec done=     33544 ( 82.5%) skipped=      7116 
    -> Aux basis density formed in    5.3 sec
    -> Solving linear equations - ok (   0.0 sec)
        Auxbasis Hermite Density:
        P|s>                     ... -0.000
        P|p>                     ... -0.000
        P|d>                     ... -0.000
        P|f>                     ... -0.000
        P|g>                     ... -0.000
        Building the Coulomb matrix: 
        J|ss>                          ... done (  0.7 sec) ndone=  5229528 nskipped1=   239226 nskipped2=   292853
        J|ps>                          ... done (  1.6 sec) ndone=  5301023 nskipped1=   214476 nskipped2=   346697
        J|pp>                          ... done (  0.7 sec) ndone=  1472813 nskipped1=    26924 nskipped2=    61047
        J|ds>                          ... done (  0.4 sec) ndone=  1043107 nskipped1=    55148 nskipped2=    88030
        J|dp>                          ... done (  0.3 sec) ndone=   556855 nskipped1=    20393 nskipped2=    27296
        J|dd>                          ... done (  0.1 sec) ndone=    58841 nskipped1=     3296 nskipped2=     2111
        Coulomb matrix built in   3.8 sec

        Total time for Split-RI-J                ...    9.385 sec
          (0) Prelude                            ...    0.000 sec
          (1) Hermite density                    ...    0.000 sec
          (2) Aux basis density                  ...    0.000 sec (inner=  0.0)
          (3) Linear equation solution           ...    0.000 sec
          (4) J-Matrix construction              ...    3.798 sec (inner=  3.8)
        ---------------------------------------------------------

                         ----------------------------
                         !        ITERATION     6   !
                         ----------------------------
   Total Energy        :   -1100.663731158359 Eh
   Energy Change       :      -0.000004630686 Eh
   MAX-DP              :       0.003249012427
   RMS-DP              :       0.000057438118
   Orbital gradient    :       0.000704146374
   Orbital Rotation    :       0.002242964520
   Actual Damping      :       0.0000
   Int. Num. El.       :   154.00000188 (UP=   77.00000094 DN=   77.00000094)
   Exchange            :  -108.52685665
   Correlation         :    -6.32203425

==>> SHARK/AuxDens: NDens=1 Thresh =     2.500000e-11 TCut=    2.500000e-12 Lmax=2 LmaxAux=4
    -> Making Hermite density - ok     0.106 sec
    -> Making Aux-basis density - (lmax=2)
    -> L=0 0:    1.890 sec done=    929463 ( 74.1%) skipped=    325445 
    -> L=1 0:    1.794 sec done=   1091248 ( 73.1%) skipped=    401659 
    -> L=1 1:    0.712 sec done=    334844 ( 73.7%) skipped=    119256 
    -> L=2 0:    0.499 sec done=    311107 ( 66.6%) skipped=    156172 
    -> L=2 1:    0.608 sec done=    185486 ( 68.4%) skipped=     85834 
    -> L=2 2:    0.092 sec done=     27521 ( 67.7%) skipped=     13139 
    -> Aux basis density formed in    5.6 sec
    -> Solving linear equations - ok (   0.0 sec)
        Auxbasis Hermite Density:
        P|s>                     ... -0.000
        P|p>                     ... -0.000
        P|d>                     ... -0.000
        P|f>                     ... -0.000
        P|g>                     ... -0.000
        Building the Coulomb matrix: 
        J|ss>                          ... done (  1.3 sec) ndone=  4565202 nskipped1=   719667 nskipped2=    84745
        J|ps>                          ... done (  2.3 sec) ndone=  4645847 nskipped1=   709278 nskipped2=   109124
        J|pp>                          ... done (  1.1 sec) ndone=  1338294 nskipped1=   123877 nskipped2=    25723
        J|ds>                          ... done (  0.6 sec) ndone=   891997 nskipped1=   174713 nskipped2=    23511
        J|dp>                          ... done (  0.6 sec) ndone=   495608 nskipped1=    61786 nskipped2=    13941
        J|dd>                          ... done (  0.1 sec) ndone=    51617 nskipped1=     8246 nskipped2=       20
        Coulomb matrix built in   6.0 sec

        Total time for Split-RI-J                ...   11.788 sec
          (0) Prelude                            ...    0.000 sec
          (1) Hermite density                    ...    0.000 sec
          (2) Aux basis density                  ...    0.000 sec (inner=  0.0)
          (3) Linear equation solution           ...    0.000 sec
          (4) J-Matrix construction              ...    5.987 sec (inner=  6.0)
        ---------------------------------------------------------

                         ----------------------------
                         !        ITERATION     7   !
                         ----------------------------
   Total Energy        :   -1100.663681476109 Eh
   Energy Change       :       0.000049682250 Eh
   MAX-DP              :       0.002317053931
   RMS-DP              :       0.000034917756
   Orbital gradient    :       0.001606405714
   Orbital Rotation    :       0.001701047665
   Actual Damping      :       0.0000
   Int. Num. El.       :   154.00000205 (UP=   77.00000102 DN=   77.00000102)
   Exchange            :  -108.52975284
   Correlation         :    -6.32217723

==>> SHARK/AuxDens: NDens=1 Thresh =     2.500000e-11 TCut=    2.500000e-12 Lmax=2 LmaxAux=4
    -> Making Hermite density - ok     0.105 sec
    -> Making Aux-basis density - (lmax=2)
    -> L=0 0:    0.804 sec done=    880785 ( 70.2%) skipped=    374123 
    -> L=1 0:    1.703 sec done=   1057582 ( 70.8%) skipped=    435325 
    -> L=1 1:    0.796 sec done=    328416 ( 72.3%) skipped=    125684 
    -> L=2 0:    0.392 sec done=    300580 ( 64.3%) skipped=    166699 
    -> L=2 1:    0.400 sec done=    179062 ( 66.0%) skipped=     92258 
    -> L=2 2:    0.102 sec done=     26753 ( 65.8%) skipped=     13907 
    -> Aux basis density formed in    4.2 sec
[...]
 4 C  pz              0.0       1.1       0.0       0.0       0.0       0.4
 4 C  py              0.0       3.6       0.0       0.0       0.0       0.0
 4 C  dz2             0.0       1.6       0.0       0.0       0.0       1.2
 4 C  dxz             0.0       0.1       0.0       0.0       0.0       0.2
 4 C  dyz             0.0       2.7       0.2       0.0       0.0       4.9
 4 C  dx2y2           0.0       2.7       0.0       0.0       0.0       0.2
 4 C  dxy             0.0       0.1       0.0       0.0       0.0       0.6
 5 O  s               0.0       3.4       0.0       0.0       0.0       0.0
 5 O  pz              0.0       0.2       0.0       0.0       0.0       0.1
 5 O  py              0.0       2.4       0.0       0.0       0.0       0.1
 5 O  dz2             0.0       5.2       0.1       0.0       0.0       2.3
 5 O  dxz             0.0       0.0       0.0       0.0       0.0       0.2
 5 O  dyz             0.1      10.6       0.1       0.0       0.0       2.2
 5 O  dx2y2           0.1      22.0       0.1       0.0       0.0       0.9
 5 O  dxy             0.0       0.1       0.0       0.0       0.0       0.5
 6 O  s               0.0       0.0       0.0       0.0       0.0       1.6
 6 O  pz              0.0       0.1       0.0       0.0       0.0       1.1
 6 O  px              0.0       0.0       0.0       0.0       0.0       0.1
 6 O  py              0.0       0.5       0.1       0.0       0.0       4.1
 6 O  dz2             0.0       0.7       0.5       0.0       0.0      20.6
 6 O  dxz             0.0       0.0       0.0       0.0       0.0       1.1
 6 O  dyz             0.0       5.6       0.1       0.0       0.0       2.5
 6 O  dx2y2           0.0       0.5       0.7       0.1       0.1      29.1
 6 O  dxy             0.0       0.7       0.0       0.0       0.0       0.3
 7 C  pz              0.0       0.0       0.1       0.0       0.0       0.0
 7 C  px              0.0       0.0       0.1       0.0       0.0       0.0
 7 C  dxz             0.0       0.0       0.4       0.0       0.0       0.0
 7 C  dyz             0.0       0.1       0.1       0.0       0.0       0.0
 7 C  dx2y2           0.0       0.0       0.3       0.0       0.0       0.0
 7 C  dxy             0.0       0.2       0.0       0.0       0.0       0.0
 8 C  s               0.1       1.3       0.5       0.0       0.0       0.0
 8 C  pz              0.1       0.7       0.0       0.0       0.0       0.0
 8 C  px              0.0       0.0       0.1       0.0       0.0       0.0
 8 C  py              0.1       1.5       0.2       0.0       0.0       0.1
 8 C  dz2             0.0       0.2       1.3       0.0       0.0       0.1
 8 C  dxz             0.0       0.0       2.5       0.0       0.0       0.2
 8 C  dyz             0.2       1.8       0.6       0.0       0.0       0.0
 8 C  dx2y2           0.0       0.3       3.7       0.0       0.0       0.1
 8 C  dxy             0.1       0.9       0.5       0.0       0.0       0.0
 9 O  s               0.1       1.6       0.1       0.0       0.0       0.2
 9 O  pz              0.0       0.5       0.1       0.0       0.0       0.0
 9 O  px              0.0       0.1       0.1       0.0       0.0       0.0
 9 O  py              0.1       0.9       0.1       0.0       0.0       0.0
 9 O  dz2             0.0       0.4       1.5       0.0       0.0       0.3
 9 O  dxz             0.1       1.0       2.3       0.0       0.0       0.0
 9 O  dyz             1.0      11.0       0.0       0.0       0.0       0.0
 9 O  dx2y2           0.2       2.1       2.0       0.0       0.0       0.8
 9 O  dxy             0.2       2.1       1.4       0.0       0.0       0.4
10 O  s               0.0       0.0       1.9       0.0       0.0       0.0
10 O  pz              0.0       0.1       1.5       0.0       0.0       0.0
10 O  py              0.0       0.2       3.3       0.0       0.0       0.1
10 O  dz2             0.0       0.6       5.0       0.0       0.0       0.1
10 O  dxz             0.1       0.9       4.2       0.0       0.0       0.1
10 O  dyz             0.0       0.1      28.1       0.0       0.0       0.5
10 O  dx2y2           0.1       1.3       1.7       0.0       0.0       0.0
10 O  dxy             0.0       0.3      14.7       0.0       0.0       0.4
11 N  dyz             0.1       0.0       0.0       0.0       0.0       0.0
11 N  dx2y2           0.4       0.0       0.0       0.0       0.0       0.0
12 C  py              0.0       0.0       0.0       0.2       0.0       0.0
12 C  dz2             0.0       0.0       0.0       0.2       0.1       0.0
12 C  dyz             0.2       0.0       0.0       0.0       0.0       0.0
12 C  dx2y2           0.0       0.0       0.0       0.2       0.0       0.0
13 C  s               1.2       0.0       0.0       0.4       0.1       0.0
13 C  pz              1.5       0.0       0.0       0.2       0.1       0.0
13 C  px              0.2       0.0       0.0       0.1       0.0       0.0
13 C  py              0.1       0.0       0.0       0.2       0.1       0.0
13 C  dz2             1.6       0.0       0.0       1.6       0.3       0.0
13 C  dxz             0.3       0.0       0.0       0.7       0.1       0.0
13 C  dyz             0.6       0.0       0.0       2.9       0.7       0.0
13 C  dx2y2           0.1       0.0       0.0       0.7       0.2       0.0
13 C  dxy             0.1       0.0       0.0       0.2       0.0       0.0
14 O  s               1.3       0.0       0.0       0.0       0.0       0.0
14 O  pz              0.8       0.0       0.0       0.0       0.0       0.0
14 O  py              0.2       0.0       0.0       0.1       0.0       0.0
14 O  dz2             6.9       0.1       0.0       0.7       0.2       0.0
14 O  dxz             2.2       0.0       0.0       0.4       0.1       0.0
14 O  dyz             5.0       0.0       0.0       3.3       0.7       0.0
14 O  dx2y2           0.0       0.0       0.0       0.5       0.1       0.0
14 O  dxy             0.5       0.0       0.0       0.2       0.1       0.0
15 O  s               0.0       0.0       0.0       1.5       0.3       0.0
15 O  pz              0.1       0.0       0.0       4.1       0.9       0.0
15 O  px              0.0       0.0       0.0       0.4       0.1       0.0
15 O  py              0.0       0.0       0.0       0.2       0.0       0.0
15 O  dz2             1.2       0.0       0.0       8.6       1.8       0.0
15 O  dxz             0.3       0.0       0.0       1.7       0.2       0.0
15 O  dyz             0.4       0.0       0.0      31.7       7.5       0.0
15 O  dx2y2           0.7       0.0       0.0       0.1       0.0       0.0
15 O  dxy             0.0       0.0       0.0       3.6       0.7       0.0
16 C  pz              0.0       0.0       0.0       0.0       0.1       0.0
16 C  dxz             0.0       0.0       0.0       0.0       0.1       0.0
16 C  dyz             0.2       0.0       0.0       0.0       0.0       0.0
16 C  dx2y2           0.2       0.0       0.0       0.0       0.1       0.0
16 C  dxy             0.3       0.0       0.0       0.0       0.2       0.0
17 C  s               3.6       0.0       0.0       0.1       0.4       0.0
17 C  pz              0.3       0.0       0.0       0.0       0.1       0.0
17 C  px              1.7       0.0       0.0       0.0       0.0       0.0
17 C  py              2.6       0.0       0.0       0.1       0.6       0.0
17 C  dz2             0.8       0.0       0.0       0.1       0.6       0.0
17 C  dxz             0.0       0.0       0.0       0.3       1.1       0.0
17 C  dyz             1.5       0.0       0.0       0.0       0.3       0.0
17 C  dx2y2           0.0       0.0       0.0       0.8       4.1       0.0
17 C  dxy             5.1       0.0       0.0       0.1       0.2       0.0
18 O  s               3.5       0.0       0.0       0.0       0.0       0.0
18 O  pz              0.3       0.0       0.0       0.0       0.0       0.0
18 O  px              1.3       0.0       0.0       0.0       0.0       0.0
18 O  py              1.1       0.0       0.0       0.0       0.1       0.0
18 O  dz2             4.6       0.0       0.0       0.1       0.4       0.0
18 O  dxz             4.7       0.0       0.0       0.3       1.0       0.0
18 O  dyz             5.7       0.0       0.0       0.1       0.2       0.0
18 O  dx2y2           0.1       0.0       0.0       0.7       3.1       0.0
18 O  dxy            24.7       0.0       0.0       0.0       0.1       0.0
19 O  s               0.0       0.0       0.0       0.3       1.3       0.0
19 O  pz              0.1       0.0       0.0       0.0       0.2       0.0
19 O  px              0.2       0.0       0.0       0.4       1.7       0.0
19 O  py              0.1       0.0       0.0       0.6       2.9       0.0
19 O  dz2             0.6       0.0       0.0       0.2       0.6       0.0
19 O  dxz             1.8       0.0       0.0       1.7       8.6       0.0
19 O  dyz             0.2       0.0       0.0       2.1      11.2       0.0
19 O  dx2y2           2.0       0.0       0.0       1.9       9.1       0.0
19 O  dxy             1.8       0.0       0.0       3.8      17.2       0.1
26 H  s               0.0       0.1       0.2       0.0       0.0       9.6
26 H  pz              0.0       0.5       0.0       0.0       0.0       0.3
26 H  px              0.0       0.1       0.0       0.0       0.0       0.1
26 H  py              0.0       0.0       0.2       0.0       0.0       9.9
29 H  s               0.0       0.1      10.7       0.0       0.0       0.2
29 H  pz              0.0       0.0       4.1       0.0       0.0       0.1
29 H  px              0.0       0.1       1.1       0.0       0.0       0.0
29 H  py              0.0       0.1       3.0       0.0       0.0       0.1
32 H  s               0.0       0.0       0.0       9.2       2.0       0.0
32 H  pz              0.0       0.0       0.0       5.3       0.9       0.0
32 H  px              0.0       0.0       0.0       0.3       0.2       0.0
32 H  py              0.1       0.0       0.0       2.1       0.3       0.0
35 H  s               0.1       0.0       0.0       1.9       9.1       0.0
35 H  pz              0.1       0.0       0.0       0.4       1.1       0.0
35 H  px              0.0       0.0       0.0       1.1       4.1       0.0
35 H  py              0.2       0.0       0.0       0.5       1.7       0.0



                      *****************************
                      * MAYER POPULATION ANALYSIS *
                      *****************************

  NA   - Mulliken gross atomic population
  ZA   - Total nuclear charge
  QA   - Mulliken gross atomic charge
  VA   - Mayer's total valence
  BVA  - Mayer's bonded valence
  FA   - Mayer's free valence

  ATOM       NA         ZA         QA         VA         BVA        FA
  0 C      5.9000     6.0000     0.1000     3.9930     3.9930    -0.0000
  1 C      5.8516     6.0000     0.1484     4.0094     4.0094    -0.0000
  2 N      7.4163     7.0000    -0.4163     3.1329     3.1329     0.0000
  3 C      5.8542     6.0000     0.1458     3.8076     3.8076    -0.0000
  4 C      5.9050     6.0000     0.0950     4.4412     4.4412    -0.0000
  5 O      8.2816     8.0000    -0.2816     2.2139     2.2139    -0.0000
  6 O      8.2050     8.0000    -0.2050     2.2601     2.2601    -0.0000
  7 C      5.8818     6.0000     0.1182     3.8603     3.8603     0.0000
  8 C      5.8495     6.0000     0.1505     4.2984     4.2984    -0.0000
  9 O      8.2824     8.0000    -0.2824     2.2240     2.2240     0.0000
 10 O      8.1546     8.0000    -0.1546     2.3060     2.3060    -0.0000
 11 N      7.4659     7.0000    -0.4659     3.0922     3.0922    -0.0000
 12 C      5.8629     6.0000     0.1371     3.7667     3.7667    -0.0000
 13 C      5.8926     6.0000     0.1074     4.4156     4.4156    -0.0000
 14 O      8.2605     8.0000    -0.2605     2.2408     2.2408     0.0000
 15 O      8.1771     8.0000    -0.1771     2.2725     2.2725     0.0000
 16 C      5.8677     6.0000     0.1323     3.7986     3.7986     0.0000
 17 C      5.8983     6.0000     0.1017     4.4291     4.4291    -0.0000
 18 O      8.2638     8.0000    -0.2638     2.2394     2.2394     0.0000
 19 O      8.1756     8.0000    -0.1756     2.2673     2.2673    -0.0000
 20 H      0.9707     1.0000     0.0293     1.0056     1.0056     0.0000
 21 H      0.9716     1.0000     0.0284     1.0226     1.0226     0.0000
 22 H      0.9662     1.0000     0.0338     0.9984     0.9984     0.0000
 23 H      0.9816     1.0000     0.0184     0.9900     0.9900    -0.0000
 24 H      0.9329     1.0000     0.0671     0.9993     0.9993     0.0000
 25 H      0.9740     1.0000     0.0260     1.0183     1.0183    -0.0000
 26 H      0.8000     1.0000     0.2000     1.0902     1.0902    -0.0000
 27 H      0.9256     1.0000     0.0744     1.0024     1.0024    -0.0000
 28 H      0.9382     1.0000     0.0618     0.9932     0.9932    -0.0000
 29 H      0.7680     1.0000     0.2320     0.9847     0.9847     0.0000
 30 H      0.9504     1.0000     0.0496     1.0151     1.0151    -0.0000
 31 H      0.9211     1.0000     0.0789     0.9975     0.9975     0.0000
 32 H      0.7863     1.0000     0.2137     1.0304     1.0304    -0.0000
 33 H      0.9512     1.0000     0.0488     1.0049     1.0049    -0.0000
 34 H      0.9168     1.0000     0.0832     0.9955     0.9955     0.0000
 35 H      0.7989     1.0000     0.2011     1.0464     1.0464    -0.0000

  Mayer bond orders larger than 0.100000
B(  0-C ,  1-C ) :   1.0763 B(  0-C , 11-N ) :   0.9730 B(  0-C , 20-H ) :   0.9333 
B(  0-C , 21-H ) :   0.9341 B(  1-C ,  2-N ) :   0.9918 B(  1-C , 22-H ) :   0.9324 
B(  1-C , 23-H ) :   0.9304 B(  2-N ,  3-C ) :   0.9835 B(  2-N ,  7-C ) :   1.0287 
B(  3-C ,  4-C ) :   0.9687 B(  3-C , 24-H ) :   0.9160 B(  3-C , 25-H ) :   0.9159 
B(  4-C ,  5-O ) :   2.0736 B(  4-C ,  6-O ) :   1.2935 B(  6-O , 26-H ) :   0.8658 
B(  7-C ,  8-C ) :   0.9622 B(  7-C , 27-H ) :   0.9181 B(  7-C , 28-H ) :   0.9133 
B(  8-C ,  9-O ) :   1.9486 B(  8-C , 10-O ) :   1.2871 B(  9-O , 26-H ) :   0.1509 
B( 10-O , 29-H ) :   0.9309 B( 11-N , 12-C ) :   0.9501 B( 11-N , 16-C ) :   0.9672 
B( 12-C , 13-C ) :   0.9569 B( 12-C , 30-H ) :   0.9204 B( 12-C , 31-H ) :   0.9206 
B( 13-C , 14-O ) :   2.1040 B( 13-C , 15-O ) :   1.2482 B( 15-O , 32-H ) :   0.9147 
B( 16-C , 17-C ) :   0.9636 B( 16-C , 33-H ) :   0.9238 B( 16-C , 34-H ) :   0.9181 
B( 17-C , 18-O ) :   2.1027 B( 17-C , 19-O ) :   1.2648 B( 19-O , 35-H ) :   0.9117 


-------
TIMINGS
-------

Total SCF time: 0 days 0 hours 6 min 46 sec 

Total time                  ....     406.604 sec
Sum of individual times     ....     405.508 sec  ( 99.7%)

Fock matrix formation       ....     393.804 sec  ( 96.9%)
  Split-RI-J                ....      23.809 sec  (  6.0% of F)
  Chain of spheres X        ....     309.870 sec  ( 78.7% of F)
  XC integration            ....      27.218 sec  (  6.9% of F)
    Basis function eval.    ....      10.692 sec  ( 39.3% of XC)
    Density eval.           ....       8.522 sec  ( 31.3% of XC)
    XC-Functional eval.     ....       1.659 sec  (  6.1% of XC)
    XC-Potential eval.      ....       5.472 sec  ( 20.1% of XC)
Diagonalization             ....       0.068 sec  (  0.0%)
Density matrix formation    ....       0.027 sec  (  0.0%)
Population analysis         ....       0.287 sec  (  0.1%)
Initial guess               ....       0.081 sec  (  0.0%)
Orbital Transformation      ....       0.000 sec  (  0.0%)
Orbital Orthonormalization  ....       0.072 sec  (  0.0%)
DIIS solution               ....       0.006 sec  (  0.0%)
SOSCF solution              ....       0.226 sec  (  0.1%)
Grid generation             ....      11.008 sec  (  2.7%)

Maximum memory used throughout the entire SCF-calculation: 142.6 MB

-------------------------   --------------------
FINAL SINGLE POINT ENERGY     -1100.681605705845
-------------------------   --------------------

                                *** OPTIMIZATION RUN DONE ***

                            ***************************************
                            *     ORCA property calculations      *
                            ***************************************

                                    ---------------------
                                    Active property flags
                                    ---------------------
   (+) Dipole Moment


------------------------------------------------------------------------------
                       ORCA ELECTRIC PROPERTIES CALCULATION
------------------------------------------------------------------------------

Dipole Moment Calculation                       ... on
Quadrupole Moment Calculation                   ... off
Polarizability Calculation                      ... off
GBWName                                         ... EDTA_DFT.gbw
Electron density                                ... EDTA_DFT.scfp
SHARK General Contraction Test:  Segmented basis detected
   -> Pre-screening matrix found on disk - Trying to read with NShells=168
   -> Passing Pre-screening matrix on to SHARK ...ok
   -> Leaving CheckPreScreeningMatrix
----------------------
SHARK INTEGRAL PACKAGE
----------------------

Number of atoms                             ...     36
Number of basis functions                   ...    360
Number of shells                            ...    168
Maximum angular momentum                    ...      2
Integral batch strategy                     ... SHARK/LIBINT Hybrid
RI-J (if used) integral strategy            ... SPLIT-RIJ (Revised 2003 algorithm where possible)
Printlevel                                  ...      2
Contraction scheme used                     ... SEGMENTED contraction
Coulomb Range Separation                    ... NOT USED
Exchange Range Separation                   ... NOT USED
Finite Nucleus Model                        ... NOT USED
Auxiliary Coulomb fitting basis             ... AVAILABLE
   # of basis functions in Aux-J            ...   1156
   # of shells in Aux-J                     ...    380
   Maximum angular momentum in Aux-J        ...      4
Auxiliary J/K fitting basis                 ... NOT available
Auxiliary Correlation fitting basis         ... NOT available
Auxiliary 'external' fitting basis          ... NOT available
Integral threshold                          ...     2.500000e-11
Primitive cut-off                           ...     2.500000e-12
Primitive pair pre-selection threshold      ...     2.500000e-12

The origin for moment calculation is the CENTER OF MASS  = ( 1.396942,  0.265933 -0.222817)

-------------
DIPOLE MOMENT
-------------
                                X             Y             Z
Electronic contribution:     -0.65191      -4.32189      -4.06845
Nuclear contribution   :     -0.63309       8.99926       5.25781
                        -----------------------------------------
Total Dipole Moment    :     -1.28500       4.67737       1.18936
                        -----------------------------------------
Magnitude (a.u.)       :      4.99435
Magnitude (Debye)      :     12.69464



--------------------
Rotational spectrum 
--------------------
 
Rotational constants in cm-1:     0.013786     0.006088     0.004859 
Rotational constants in MHz :   413.284047   182.506007   145.655692 

 Dipole components along the rotational axes: 
x,y,z [a.u.] :    -2.639626     3.028527     2.967147 
x,y,z [Debye]:    -6.709395     7.697904     7.541887 

 

Timings for individual modules:

Sum of individual times         ...    12865.938 sec (= 214.432 min)
GTO integral calculation        ...       18.884 sec (=   0.315 min)   0.1 %
SCF iterations                  ...    10033.531 sec (= 167.226 min)  78.0 %
SCF Gradient evaluation         ...     2810.637 sec (=  46.844 min)  21.8 %
Geometry relaxation             ...        2.885 sec (=   0.048 min)   0.0 %
                             ****ORCA TERMINATED NORMALLY****
TOTAL RUN TIME: 0 days 3 hours 34 minutes 33 seconds 56 msec
