
                                 *****************
                                 * O   R   C   A *
                                 *****************

                                            #,                                       
                                            ###                                      
                                            ####                                     
                                            #####                                    
                                            ######                                   
                                           ########,                                 
                                     ,,################,,,,,                         
                               ,,#################################,,                 
                          ,,##########################################,,             
                       ,#########################################, ''#####,          
                    ,#############################################,,   '####,        
                  ,##################################################,,,,####,       
                ,###########''''           ''''###############################       
              ,#####''   ,,,,##########,,,,          '''####'''          '####       
            ,##' ,,,,###########################,,,                        '##       
           ' ,,###''''                  '''############,,,                           
         ,,##''                                '''############,,,,        ,,,,,,###''
      ,#''                                            '''#######################'''  
     '                                                          ''''####''''         
             ,#######,   #######,   ,#######,      ##                                
            ,#'     '#,  ##    ##  ,#'     '#,    #''#        ######   ,####,        
            ##       ##  ##   ,#'  ##            #'  '#       #        #'  '#        
            ##       ##  #######   ##           ,######,      #####,   #    #        
            '#,     ,#'  ##    ##  '#,     ,#' ,#      #,         ##   #,  ,#        
             '#######'   ##     ##  '#######'  #'      '#     #####' # '####'        



                  #######################################################
                  #                        -***-                        #
                  #          Department of theory and spectroscopy      #
                  #    Directorship and core code : Frank Neese         #
                  #        Max Planck Institute fuer Kohlenforschung    #
                  #                Kaiser Wilhelm Platz 1               #
                  #                 D-45470 Muelheim/Ruhr               #
                  #                      Germany                        #
                  #                                                     #
                  #                  All rights reserved                #
                  #                        -***-                        #
                  #######################################################


                         Program Version 5.0.4 -  RELEASE  -


 With contributions from (in alphabetic order):
   Daniel Aravena         : Magnetic Suceptibility
   Michael Atanasov       : Ab Initio Ligand Field Theory (pilot matlab implementation)
   Alexander A. Auer      : GIAO ZORA, VPT2 properties, NMR spectrum
   Ute Becker             : Parallelization
   Giovanni Bistoni       : ED, misc. LED, open-shell LED, HFLD
   Martin Brehm           : Molecular dynamics
   Dmytro Bykov           : SCF Hessian
   Vijay G. Chilkuri      : MRCI spin determinant printing, contributions to CSF-ICE
   Dipayan Datta          : RHF DLPNO-CCSD density
   Achintya Kumar Dutta   : EOM-CC, STEOM-CC
   Dmitry Ganyushin       : Spin-Orbit,Spin-Spin,Magnetic field MRCI
   Miquel Garcia          : C-PCM and meta-GGA Hessian, CC/C-PCM, Gaussian charge scheme
   Yang Guo               : DLPNO-NEVPT2, F12-NEVPT2, CIM, IAO-localization
   Andreas Hansen         : Spin unrestricted coupled pair/coupled cluster methods
   Benjamin Helmich-Paris : MC-RPA, TRAH-SCF, COSX integrals
   Lee Huntington         : MR-EOM, pCC
   Robert Izsak           : Overlap fitted RIJCOSX, COSX-SCS-MP3, EOM
   Marcus Kettner         : VPT2
   Christian Kollmar      : KDIIS, OOCD, Brueckner-CCSD(T), CCSD density, CASPT2, CASPT2-K
   Simone Kossmann        : Meta GGA functionals, TD-DFT gradient, OOMP2, MP2 Hessian
   Martin Krupicka        : Initial AUTO-CI
   Lucas Lang             : DCDCAS
   Marvin Lechner         : AUTO-CI (C++ implementation), FIC-MRCC
   Dagmar Lenk            : GEPOL surface, SMD
   Dimitrios Liakos       : Extrapolation schemes; Compound Job, initial MDCI parallelization
   Dimitrios Manganas     : Further ROCIS development; embedding schemes
   Dimitrios Pantazis     : SARC Basis sets
   Anastasios Papadopoulos: AUTO-CI, single reference methods and gradients
   Taras Petrenko         : DFT Hessian,TD-DFT gradient, ASA, ECA, R-Raman, ABS, FL, XAS/XES, NRVS
   Peter Pinski           : DLPNO-MP2, DLPNO-MP2 Gradient
   Christoph Reimann      : Effective Core Potentials
   Marius Retegan         : Local ZFS, SOC
   Christoph Riplinger    : Optimizer, TS searches, QM/MM, DLPNO-CCSD(T), (RO)-DLPNO pert. Triples
   Tobias Risthaus        : Range-separated hybrids, TD-DFT gradient, RPA, STAB
   Michael Roemelt        : Original ROCIS implementation
   Masaaki Saitow         : Open-shell DLPNO-CCSD energy and density
   Barbara Sandhoefer     : DKH picture change effects
   Avijit Sen             : IP-ROCIS
   Kantharuban Sivalingam : CASSCF convergence, NEVPT2, FIC-MRCI
   Bernardo de Souza      : ESD, SOC TD-DFT
   Georgi Stoychev        : AutoAux, RI-MP2 NMR, DLPNO-MP2 response
   Willem Van den Heuvel  : Paramagnetic NMR
   Boris Wezisla          : Elementary symmetry handling
   Frank Wennmohs         : Technical directorship


 We gratefully acknowledge several colleagues who have allowed us to
 interface, adapt or use parts of their codes:
   Stefan Grimme, W. Hujo, H. Kruse, P. Pracht,  : VdW corrections, initial TS optimization,
                  C. Bannwarth, S. Ehlert          DFT functionals, gCP, sTDA/sTD-DF
   Ed Valeev, F. Pavosevic, A. Kumar             : LibInt (2-el integral package), F12 methods
   Garnet Chan, S. Sharma, J. Yang, R. Olivares  : DMRG
   Ulf Ekstrom                                   : XCFun DFT Library
   Mihaly Kallay                                 : mrcc  (arbitrary order and MRCC methods)
   Jiri Pittner, Ondrej Demel                    : Mk-CCSD
   Frank Weinhold                                : gennbo (NPA and NBO analysis)
   Christopher J. Cramer and Donald G. Truhlar   : smd solvation model
   Lars Goerigk                                  : TD-DFT with DH, B97 family of functionals
   V. Asgeirsson, H. Jonsson                     : NEB implementation
   FAccTs GmbH                                   : IRC, NEB, NEB-TS, DLPNO-Multilevel, CI-OPT
                                                   MM, QMMM, 2- and 3-layer-ONIOM, Crystal-QMMM,
                                                   LR-CPCM, SF, NACMEs, symmetry and pop. for TD-DFT,
                                                   nearIR, NL-DFT gradient (VV10), updates on ESD,
                                                   ML-optimized integration grids
   S Lehtola, MJT Oliveira, MAL Marques          : LibXC Library
   Liviu Ungur et al                             : ANISO software


 Your calculation uses the libint2 library for the computation of 2-el integrals
 For citations please refer to: http://libint.valeyev.net

 Your ORCA version has been built with support for libXC version: 5.1.0
 For citations please refer to: https://tddft.org/programs/libxc/

 This ORCA versions uses:
   CBLAS   interface :  Fast vector & matrix operations
   LAPACKE interface :  Fast linear algebra routines
   SCALAPACK package :  Parallel linear algebra routines
   Shared memory     :  Shared parallel matrices
   BLAS/LAPACK       :  OpenBLAS 0.3.15  USE64BITINT DYNAMIC_ARCH NO_AFFINITY SkylakeX SINGLE_THREADED
        Core in use  :  SkylakeX
   Copyright (c) 2011-2014, The OpenBLAS Project


================================================================================

----- Orbital basis set information -----
Your calculation utilizes the basis: def2-SVP
   F. Weigend and R. Ahlrichs, Phys. Chem. Chem. Phys. 7, 3297 (2005).

----- AuxJ basis set information -----
Your calculation utilizes the auxiliary basis: def2/J
   F. Weigend, Phys. Chem. Chem. Phys. 8, 1057 (2006).

================================================================================
                                        WARNINGS
                       Please study these warnings very carefully!
================================================================================


WARNING: Geometry Optimization
  ===> : Switching off AutoStart
         For restart on a previous wavefunction, please use MOREAD

INFO   : the flag for use of the SHARK integral package has been found!

================================================================================
                                       INPUT FILE
================================================================================
NAME = NaCl_DFT.inp
|  1> ## avogadro generated ORCA input file 
|  2> # Advanced Mode
|  3> # 
|  4> ! B3LYP OPT def2-SVP NormalPrint defgrid2 NormalSCF 
|  5> 
|  6> ! CPCM
|  7> %cpcm
|  8> epsilon 69.0
|  9> refrac 1.34
| 10> end
| 11> 
| 12> %scf
| 13> 	MaxIter 125
| 14> 	CNVDIIS 1
| 15> 	CNVSOSCF 1 
| 16> end
| 17> 
| 18> * xyz -8 1
| 19>   Na        0.87620       -0.20055        1.18261
| 20>   Cl        1.25819        0.32612       -1.13185
| 21> *
| 22> 
| 23> 
| 24>                          ****END OF INPUT****
================================================================================

                       *****************************
                       * Geometry Optimization Run *
                       *****************************

Geometry optimization settings:
Update method            Update   .... BFGS
Choice of coordinates    CoordSys .... Z-matrix Internals
Initial Hessian          InHess   .... Almoef's Model

Convergence Tolerances:
Energy Change            TolE     ....  5.0000e-06 Eh
Max. Gradient            TolMAXG  ....  3.0000e-04 Eh/bohr
RMS Gradient             TolRMSG  ....  1.0000e-04 Eh/bohr
Max. Displacement        TolMAXD  ....  4.0000e-03 bohr
RMS Displacement         TolRMSD  ....  2.0000e-03 bohr
Strict Convergence                ....  False
------------------------------------------------------------------------------
                        ORCA OPTIMIZATION COORDINATE SETUP
------------------------------------------------------------------------------

The optimization will be done in new redundant internal coordinates
Making redundant internal coordinates   ...  (new redundants) done
Evaluating the initial hessian          ...  (Almloef) done
Evaluating the coordinates              ...  done
Calculating the B-matrix                .... done
Calculating the G-matrix                .... done
Diagonalizing the G-matrix              .... done
The first mode is                       ....    0
The number of degrees of freedom        ....    1

    -----------------------------------------------------------------
                    Redundant Internal Coordinates


    -----------------------------------------------------------------
         Definition                    Initial Value    Approx d2E/dq
    -----------------------------------------------------------------
      1. B(Cl  1,Na  0)                  2.4042         0.493586   
    -----------------------------------------------------------------

Number of atoms                         .... 2
Number of degrees of freedom            .... 1

         *************************************************************
         *                GEOMETRY OPTIMIZATION CYCLE   1            *
         *************************************************************
---------------------------------
CARTESIAN COORDINATES (ANGSTROEM)
---------------------------------
  Na     0.876200   -0.200550    1.182610
  Cl     1.258190    0.326120   -1.131850

----------------------------
CARTESIAN COORDINATES (A.U.)
----------------------------
  NO LB      ZA    FRAG     MASS         X           Y           Z
   0 Na   11.0000    0    22.990    1.655778   -0.378985    2.234809
   1 Cl   17.0000    0    35.453    2.377635    0.616277   -2.138887

--------------------------------
INTERNAL COORDINATES (ANGSTROEM)
--------------------------------
 Na     0   0   0     0.000000000000     0.00000000     0.00000000
 Cl     1   0   0     2.404167785451     0.00000000     0.00000000

---------------------------
INTERNAL COORDINATES (A.U.)
---------------------------
 Na     0   0   0     0.000000000000     0.00000000     0.00000000
 Cl     1   0   0     4.543218694498     0.00000000     0.00000000

---------------------
BASIS SET INFORMATION
---------------------
There are 2 groups of distinct atoms

 Group   1 Type Na  : 10s6p1d contracted to 4s2p1d pattern {5311/51/1}
 Group   2 Type Cl  : 10s7p1d contracted to 4s3p1d pattern {5311/511/1}

Atom   0Na   basis set group =>   1
Atom   1Cl   basis set group =>   2
---------------------------------
AUXILIARY/J BASIS SET INFORMATION
---------------------------------
There are 2 groups of distinct atoms

 Group   1 Type Na  : 14s5p5d2f1g contracted to 8s4p4d1f1g pattern {71111111/2111/2111/2/1}
 Group   2 Type Cl  : 14s5p5d2f1g contracted to 8s4p3d1f1g pattern {71111111/2111/311/2/1}

Atom   0Na   basis set group =>   1
Atom   1Cl   basis set group =>   2
------------------------------------------------------------------------------
                           ORCA GTO INTEGRAL CALCULATION
                           -- RI-GTO INTEGRALS CHOSEN --
------------------------------------------------------------------------------
------------------------------------------------------------------------------
                   ___                                                        
                  /   \      - P O W E R E D   B Y -                         
                 /     \                                                     
                 |  |  |   _    _      __       _____    __    __             
                 |  |  |  | |  | |    /  \     |  _  \  |  |  /  |          
                  \  \/   | |  | |   /    \    | | | |  |  | /  /          
                 / \  \   | |__| |  /  /\  \   | |_| |  |  |/  /          
                |  |  |   |  __  | /  /__\  \  |    /   |      \           
                |  |  |   | |  | | |   __   |  |    \   |  |\   \          
                \     /   | |  | | |  |  |  |  | |\  \  |  | \   \       
                 \___/    |_|  |_| |__|  |__|  |_| \__\ |__|  \__/        
                                                                              
                      - O R C A' S   B I G   F R I E N D -                    
                                      &                                       
                       - I N T E G R A L  F E E D E R -                       
                                                                              
 v1 FN, 2020, v2 2021                                                         
------------------------------------------------------------------------------


Reading SHARK input file NaCl_DFT.SHARKINP.tmp ... SHARK General Contraction Test:  Segmented basis detected
   -> Pre-screening matrix *NOT* found on disk - recalculating with NShells=15
   -> Leaving CheckPreScreeningMatrix
ok
----------------------
SHARK INTEGRAL PACKAGE
----------------------

Number of atoms                             ...      2
Number of basis functions                   ...     33
Number of shells                            ...     15
Maximum angular momentum                    ...      2
Integral batch strategy                     ... SHARK/LIBINT Hybrid
RI-J (if used) integral strategy            ... SPLIT-RIJ (Revised 2003 algorithm where possible)
Printlevel                                  ...      2
Contraction scheme used                     ... SEGMENTED contraction
Coulomb Range Separation                    ... NOT USED
Exchange Range Separation                   ... NOT USED
Finite Nucleus Model                        ... NOT USED
Auxiliary Coulomb fitting basis             ... AVAILABLE
   # of basis functions in Aux-J            ...    107
   # of shells in Aux-J                     ...     35
   Maximum angular momentum in Aux-J        ...      4
Auxiliary J/K fitting basis                 ... NOT available
Auxiliary Correlation fitting basis         ... NOT available
Auxiliary 'external' fitting basis          ... NOT available
Integral threshold                          ...     2.500000e-11
Primitive cut-off                           ...     2.500000e-12
Primitive pair pre-selection threshold      ...     2.500000e-12

Calculating pre-screening integrals         ... done (  0.0 sec) Dimension = 15
Organizing shell pair data                  ... done (  0.0 sec)
Shell pair information
Total number of shell pairs                 ...       120
Shell pairs after pre-screening             ...       117
Total number of primitive shell pairs       ...       676
Primitive shell pairs kept                  ...       540
          la=0 lb=0:     34 shell pairs
          la=1 lb=0:     39 shell pairs
          la=1 lb=1:     15 shell pairs
          la=2 lb=0:     16 shell pairs
          la=2 lb=1:     10 shell pairs
          la=2 lb=2:      3 shell pairs

Calculating one electron integrals          ... done (  0.0 sec)
Calculating RI/J V-Matrix + Cholesky decomp.... done (  0.1 sec)
Calculating Nuclear repulsion               ... done (  0.0 sec) ENN=     41.160246198682 Eh

SHARK setup successfully completed in   0.3 seconds

Maximum memory used throughout the entire GTOINT-calculation: 8.8 MB
-------------------------------------------------------------------------------
                                 ORCA SCF
-------------------------------------------------------------------------------

------------
SCF SETTINGS
------------
Hamiltonian:
 Density Functional     Method          .... DFT(GTOs)
 Exchange Functional    Exchange        .... B88
   X-Alpha parameter    XAlpha          ....  0.666667
   Becke's b parameter  XBeta           ....  0.004200
 Correlation Functional Correlation     .... LYP
 LDA part of GGA corr.  LDAOpt          .... VWN-5
 Gradients option       PostSCFGGA      .... off
 Hybrid DFT is turned on
   Fraction HF Exchange ScalHFX         ....  0.200000
   Scaling of DF-GGA-X  ScalDFX         ....  0.720000
   Scaling of DF-GGA-C  ScalDFC         ....  0.810000
   Scaling of DF-LDA-C  ScalLDAC        ....  1.000000
   Perturbative correction              ....  0.000000
   Density functional embedding theory  .... OFF
   NL short-range parameter             ....  4.800000
 RI-approximation to the Coulomb term is turned on
   Number of AuxJ basis functions       .... 107
   RIJ-COSX (HFX calculated with COS-X)).... on


General Settings:
 Integral files         IntName         .... NaCl_DFT
 Hartree-Fock type      HFTyp           .... RHF
 Total Charge           Charge          ....   -8
 Multiplicity           Mult            ....    1
 Number of Electrons    NEL             ....   36
 Basis Dimension        Dim             ....   33
 Nuclear Repulsion      ENuc            ....     41.1602461987 Eh

Convergence Acceleration:
 DIIS                   CNVDIIS         .... on
   Start iteration      DIISMaxIt       ....    12
   Startup error        DIISStart       ....  0.200000
   # of expansion vecs  DIISMaxEq       ....     5
   Bias factor          DIISBfac        ....   1.050
   Max. coefficient     DIISMaxC        ....  10.000
 Trust-Rad. Augm. Hess. CNVTRAH         .... auto
   Auto Start mean grad. ratio tolernc. ....  1.125000
   Auto Start start iteration           ....    20
   Auto Start num. interpolation iter.  ....    10
   Max. Number of Micro iterations      ....    16
   Max. Number of Macro iterations      .... Maxiter - #DIIS iter
   Number of Davidson start vectors     ....     2
   Converg. threshold I  (grad. norm)   ....   1.000e-05
   Converg. threshold II (energy diff.) ....   1.000e-08
   Grad. Scal. Fac. for Micro threshold ....   0.100
   Minimum threshold for Micro iter.    ....   0.010
   NR start threshold (gradient norm)   ....   0.001
   Initial trust radius                 ....   0.400
   Minimum AH scaling param. (alpha)    ....   1.000
   Maximum AH scaling param. (alpha)    .... 1000.000
   Orbital update algorithm             .... Taylor
   White noise on init. David. guess    .... on
   Maximum white noise                  ....   0.010
   Quad. conv. algorithm                .... NR
 SOSCF                  CNVSOSCF        .... on
   Start iteration      SOSCFMaxIt      ....   150
   Startup grad/error   SOSCFStart      ....  0.003300
 Level Shifting         CNVShift        .... on
   Level shift para.    LevelShift      ....    0.2500
   Turn off err/grad.   ShiftErr        ....    0.0010
 Zerner damping         CNVZerner       .... off
 Static damping         CNVDamp         .... on
   Fraction old density DampFac         ....    0.7000
   Max. Damping (<1)    DampMax         ....    0.9800
   Min. Damping (>=0)   DampMin         ....    0.0000
   Turn off err/grad.   DampErr         ....    0.1000
 Fernandez-Rico         CNVRico         .... off

SCF Procedure:
 Maximum # iterations   MaxIter         ....   125
 SCF integral mode      SCFMode         .... Direct
   Integral package                     .... SHARK and LIBINT hybrid scheme
 Reset frequency        DirectResetFreq ....    20
 Integral Threshold     Thresh          ....  2.500e-11 Eh
 Primitive CutOff       TCut            ....  2.500e-12 Eh

Convergence Tolerance:
 Convergence Check Mode ConvCheckMode   .... Total+1el-Energy
 Convergence forced     ConvForced      .... 0
 Energy Change          TolE            ....  1.000e-08 Eh
 1-El. energy change                    ....  1.000e-05 Eh
 Orbital Gradient       TolG            ....  1.000e-05
 Orbital Rotation angle TolX            ....  1.000e-05
 DIIS Error             TolErr          ....  5.000e-07


Diagonalization of the overlap matrix:
Smallest eigenvalue                        ... 3.934e-02
Time for diagonalization                   ...    0.001 sec
Threshold for overlap eigenvalues          ... 1.000e-08
Number of eigenvalues below threshold      ... 0
Time for construction of square roots      ...    0.003 sec
Total time needed                          ...    0.004 sec

SHARK General Contraction Test:  Segmented basis detected
   -> Pre-screening matrix found on disk - Trying to read with NShells=15
   -> Passing Pre-screening matrix on to SHARK ...ok
   -> Leaving CheckPreScreeningMatrix
----------------------
SHARK INTEGRAL PACKAGE
----------------------

Number of atoms                             ...      2
Number of basis functions                   ...     33
Number of shells                            ...     15
Maximum angular momentum                    ...      2
Integral batch strategy                     ... SHARK/LIBINT Hybrid
RI-J (if used) integral strategy            ... SPLIT-RIJ (Revised 2003 algorithm where possible)
Printlevel                                  ...      2
Contraction scheme used                     ... SEGMENTED contraction
Coulomb Range Separation                    ... NOT USED
Exchange Range Separation                   ... NOT USED
Finite Nucleus Model                        ... NOT USED
Auxiliary Coulomb fitting basis             ... AVAILABLE
   # of basis functions in Aux-J            ...    107
   # of shells in Aux-J                     ...     35
   Maximum angular momentum in Aux-J        ...      4
Auxiliary J/K fitting basis                 ... NOT available
Auxiliary Correlation fitting basis         ... NOT available
Auxiliary 'external' fitting basis          ... NOT available
Integral threshold                          ...     2.500000e-11
Primitive cut-off                           ...     2.500000e-12
Primitive pair pre-selection threshold      ...     2.500000e-12

Time for model grid setup =    0.067 sec

------------------------------
INITIAL GUESS: MODEL POTENTIAL
------------------------------
Loading Hartree-Fock densities                     ... done
Calculating cut-offs                               ... done
Initializing the effective Hamiltonian             ... done
Setting up the integral package (SHARK)            ... done
Starting the Coulomb interaction                   ...     -> Generating integrals - 
    -> L=0 0 :     0.001 sec done=      1020 skipped=         0 prim-skipped=         0
    -> L=1 0 :     0.001 sec done=      1170 skipped=         0 prim-skipped=         0
    -> L=1 1 :     0.000 sec done=       450 skipped=         0 prim-skipped=         0
    -> L=2 0 :     0.000 sec done=       480 skipped=         0 prim-skipped=         0
    -> L=2 1 :     0.000 sec done=       300 skipped=         0 prim-skipped=         0
    -> L=2 2 :     0.000 sec done=        90 skipped=         0 prim-skipped=         0
done (   0.0 sec)
Reading the grid                                   ... done
Mapping shells                                     ... done
Starting the XC term evaluation                    ... done (   0.0 sec)
  promolecular density results
     # of electrons  =     28.000606546
     EX              =    -41.522247720
     EC              =     -1.123389582
     EX+EC           =    -42.645637302
Transforming the Hamiltonian                       ... done (   0.0 sec)
Diagonalizing the Hamiltonian                      ... done (   0.0 sec)
Back transforming the eigenvectors                 ... done (   0.0 sec)
Now organizing SCF variables                       ... done
                      ------------------
                      INITIAL GUESS DONE (   0.1 sec)
                      ------------------
-------------------
DFT GRID GENERATION
-------------------

General Integration Accuracy     IntAcc      ... 4.388
Radial Grid Type                 RadialGrid  ... OptM3 with GC (2021)
Angular Grid (max. ang.)         AngularGrid ... 4 (Lebedev-302)
Angular grid pruning method      GridPruning ... 4 (adaptive)
Weight generation scheme         WeightScheme... Becke
Basis function cutoff            BFCut       ... 1.0000e-11
Integration weight cutoff        WCut        ... 1.0000e-14
Angular grids for H and He will be reduced by one unit
Partially contracted basis set               ... off
Rotationally invariant grid construction     ... off

Total number of grid points                  ...    14724
Total number of batches                      ...      231
Average number of points per batch           ...       63
Average number of grid points per atom       ...     7362
Time for grid setup =    0.199 sec

--------------------
COSX GRID GENERATION
--------------------

GRIDX 1
-------
General Integration Accuracy     IntAcc      ... 3.816
Radial Grid Type                 RadialGrid  ... OptM3 with GC (2021)
Angular Grid (max. ang.)         AngularGrid ... 1 (Lebedev-50)
Angular grid pruning method      GridPruning ... 4 (adaptive)
Weight generation scheme         WeightScheme... Becke
Basis function cutoff            BFCut       ... 1.0000e-11
Integration weight cutoff        WCut        ... 1.0000e-14
Angular grids for H and He will be reduced by one unit
Partially contracted basis set               ... on
Rotationally invariant grid construction     ... off

Total number of grid points                  ...     1680
Total number of batches                      ...       27
Average number of points per batch           ...       62
Average number of grid points per atom       ...      840
UseSFitting                                  ... on

GRIDX 2
-------
General Integration Accuracy     IntAcc      ... 4.020
Radial Grid Type                 RadialGrid  ... OptM3 with GC (2021)
Angular Grid (max. ang.)         AngularGrid ... 2 (Lebedev-110)
Angular grid pruning method      GridPruning ... 4 (adaptive)
Weight generation scheme         WeightScheme... Becke
Basis function cutoff            BFCut       ... 1.0000e-11
Integration weight cutoff        WCut        ... 1.0000e-14
Angular grids for H and He will be reduced by one unit
Partially contracted basis set               ... on
Rotationally invariant grid construction     ... off

Total number of grid points                  ...     3949
Total number of batches                      ...       62
Average number of points per batch           ...       63
Average number of grid points per atom       ...     1974
UseSFitting                                  ... on

GRIDX 3
-------
General Integration Accuracy     IntAcc      ... 4.338
Radial Grid Type                 RadialGrid  ... OptM3 with GC (2021)
Angular Grid (max. ang.)         AngularGrid ... 3 (Lebedev-194)
Angular grid pruning method      GridPruning ... 4 (adaptive)
Weight generation scheme         WeightScheme... Becke
Basis function cutoff            BFCut       ... 1.0000e-11
Integration weight cutoff        WCut        ... 1.0000e-14
Angular grids for H and He will be reduced by one unit
Partially contracted basis set               ... on
Rotationally invariant grid construction     ... off

Total number of grid points                  ...    10045
Total number of batches                      ...      158
Average number of points per batch           ...       63
Average number of grid points per atom       ...     5022
UseSFitting                                  ... on

Time for X-Grid setup             =    0.197 sec


--------------------
CPCM SOLVATION MODEL
--------------------
CPCM parameters:
  Epsilon                                         ...      69.0000
  Refrac                                          ...       1.3400
  Rsolv                                           ...       1.3000
  Surface type                                    ... GAUSSIAN VDW
  Epsilon function type                           ...         CPCM
Radii:
 Radius for Na used is    5.1476 Bohr (=   2.7240 Ang.)
 Radius for Cl used is    3.9684 Bohr (=   2.1000 Ang.)
Calculating surface                               ...        done! (  0.0s)
GEPOL surface points                              ...          187
GEPOL Volume                                      ...     713.5368
GEPOL Surface-area                                ...     404.7511
Calculating surface distance matrix               ...        done! (  0.0s)
Performing Cholesky decomposition & store         ...        done! (  0.0s)
Overall time for CPCM initialization              ...                 0.0s
--------------
SCF ITERATIONS
--------------
               ***  Starting incremental Fock matrix formation  ***
==>> SHARK/AuxDens: NDens=1 Thresh =     2.500000e-11 TCut=    2.500000e-12 Lmax=2 LmaxAux=4
    -> Making Hermite density - ok     0.000 sec
    -> Making Aux-basis density - (lmax=2)
    -> L=0 0:    0.001 sec done=      1184 ( 99.5%) skipped=         6 
    -> L=1 0:    0.001 sec done=      1365 (100.0%) skipped=         0 
    -> L=1 1:    0.001 sec done=       525 (100.0%) skipped=         0 
    -> L=2 0:    0.000 sec done=       560 (100.0%) skipped=         0 
    -> L=2 1:    0.000 sec done=       350 (100.0%) skipped=         0 
    -> L=2 2:    0.000 sec done=       105 (100.0%) skipped=         0 
    -> Aux basis density formed in    0.0 sec
    -> Solving linear equations - ok (   0.0 sec)
        Auxbasis Hermite Density:
        P|s>                     ...  0.000
        P|p>                     ...  0.000
        P|d>                     ...  0.000
        P|f>                     ...  0.000
        P|g>                     ...  0.000
        Building the Coulomb matrix: 
        J|ss>                          ... done (  0.0 sec) ndone=     9754 nskipped1=        0 nskipped2=       20
        J|ps>                          ... done (  0.0 sec) ndone=    10534 nskipped1=        0 nskipped2=       50
        J|pp>                          ... done (  0.0 sec) ndone=     4999 nskipped1=        0 nskipped2=       77
        J|ds>                          ... done (  0.0 sec) ndone=     2158 nskipped1=        0 nskipped2=        2
        J|dp>                          ... done (  0.0 sec) ndone=     1404 nskipped1=        0 nskipped2=        0
        J|dd>                          ... done (  0.0 sec) ndone=      162 nskipped1=        0 nskipped2=        0
        Coulomb matrix built in   0.0 sec

        Total time for Split-RI-J                ...    0.011 sec
          (0) Prelude                            ...    0.000 sec
          (1) Hermite density                    ...    0.000 sec
          (2) Aux basis density                  ...    0.000 sec (inner=  0.0)
          (3) Linear equation solution           ...    0.000 sec
          (4) J-Matrix construction              ...    0.005 sec (inner=  0.0)
        ---------------------------------------------------------

                         ----------------------------
                         !        ITERATION     0   !
                         ----------------------------
   Total Energy        :    -621.989745857980 Eh
   Energy Change       :    -621.989745857980 Eh
   MAX-DP              :       0.677392160238
   RMS-DP              :       0.031005107611
   Actual Damping      :       0.7000
   Actual Level Shift  :       0.2500 Eh
   Int. Num. El.       :    36.00044084 (UP=   18.00022042 DN=   18.00022042)
   Exchange            :   -34.34596573
   Correlation         :    -1.52913672

==>> SHARK/AuxDens: NDens=1 Thresh =     2.500000e-11 TCut=    2.500000e-12 Lmax=2 LmaxAux=4
    -> Making Hermite density - ok     0.000 sec
    -> Making Aux-basis density - (lmax=2)
    -> L=0 0:    0.001 sec done=      1190 (100.0%) skipped=         0 
    -> L=1 0:    0.001 sec done=      1365 (100.0%) skipped=         0 
    -> L=1 1:    0.001 sec done=       525 (100.0%) skipped=         0 
    -> L=2 0:    0.000 sec done=       560 (100.0%) skipped=         0 
    -> L=2 1:    0.000 sec done=       350 (100.0%) skipped=         0 
    -> L=2 2:    0.000 sec done=       105 (100.0%) skipped=         0 
    -> Aux basis density formed in    0.0 sec
    -> Solving linear equations - ok (   0.0 sec)
        Auxbasis Hermite Density:
        P|s>                     ...  0.457
        P|p>                     ...  0.457
        P|d>                     ...  0.457
        P|f>                     ...  0.457
        P|g>                     ...  0.457
        Building the Coulomb matrix: 
        J|ss>                          ... done (  0.0 sec) ndone=     9754 nskipped1=        0 nskipped2=       20
        J|ps>                          ... done (  0.0 sec) ndone=    10534 nskipped1=        0 nskipped2=       50
        J|pp>                          ... done (  0.1 sec) ndone=     4999 nskipped1=        0 nskipped2=       77
        J|ds>                          ... done (  0.0 sec) ndone=     2158 nskipped1=        0 nskipped2=        2
        J|dp>                          ... done (  0.0 sec) ndone=     1404 nskipped1=        0 nskipped2=        0
        J|dd>                          ... done (  0.0 sec) ndone=      162 nskipped1=        0 nskipped2=        0
        Coulomb matrix built in   0.1 sec

        Total time for Split-RI-J                ...    0.066 sec
          (0) Prelude                            ...    0.000 sec
          (1) Hermite density                    ...    0.000 sec
          (2) Aux basis density                  ...    0.000 sec (inner=  0.0)
          (3) Linear equation solution           ...    0.000 sec
          (4) J-Matrix construction              ...    0.062 sec (inner=  0.1)
        ---------------------------------------------------------

                         ----------------------------
                         !        ITERATION     1   !
                         ----------------------------
   Total Energy        :    -622.056222588575 Eh
   Energy Change       :      -0.066476730595 Eh
   MAX-DP              :       0.801874152452
   RMS-DP              :       0.033063387765
   Actual Damping      :       0.7000
   Actual Level Shift  :       0.2500 Eh
   Int. Num. El.       :    36.00039046 (UP=   18.00019523 DN=   18.00019523)
   Exchange            :   -34.22997828
   Correlation         :    -1.52334071

==>> SHARK/AuxDens: NDens=1 Thresh =     2.500000e-11 TCut=    2.500000e-12 Lmax=2 LmaxAux=4
    -> Making Hermite density - ok     0.000 sec
    -> Making Aux-basis density - (lmax=2)
    -> L=0 0:    0.001 sec done=      1190 (100.0%) skipped=         0 
    -> L=1 0:    0.001 sec done=      1365 (100.0%) skipped=         0 
    -> L=1 1:    0.001 sec done=       525 (100.0%) skipped=         0 
    -> L=2 0:    0.000 sec done=       560 (100.0%) skipped=         0 
    -> L=2 1:    0.000 sec done=       350 (100.0%) skipped=         0 
    -> L=2 2:    0.000 sec done=       105 (100.0%) skipped=         0 
    -> Aux basis density formed in    0.0 sec
    -> Solving linear equations - ok (   0.0 sec)
        Auxbasis Hermite Density:
        P|s>                     ...  0.457
        P|p>                     ...  0.457
        P|d>                     ...  0.457
        P|f>                     ...  0.457
        P|g>                     ...  0.457
        Building the Coulomb matrix: 
        J|ss>                          ... done (  0.0 sec) ndone=     9754 nskipped1=        0 nskipped2=       20
        J|ps>                          ... done (  0.0 sec) ndone=    10534 nskipped1=        0 nskipped2=       50
        J|pp>                          ... done (  0.0 sec) ndone=     4999 nskipped1=        0 nskipped2=       77
        J|ds>                          ... done (  0.0 sec) ndone=     2158 nskipped1=        0 nskipped2=        2
        J|dp>                          ... done (  0.0 sec) ndone=     1404 nskipped1=        0 nskipped2=        0
        J|dd>                          ... done (  0.0 sec) ndone=      162 nskipped1=        0 nskipped2=        0
        Coulomb matrix built in   0.0 sec

        Total time for Split-RI-J                ...    0.006 sec
          (0) Prelude                            ...    0.000 sec
          (1) Hermite density                    ...    0.000 sec
          (2) Aux basis density                  ...    0.000 sec (inner=  0.0)
          (3) Linear equation solution           ...    0.000 sec
          (4) J-Matrix construction              ...    0.002 sec (inner=  0.0)
        ---------------------------------------------------------
                               ***Turning on DIIS***

                         ----------------------------
                         !        ITERATION     2   !
                         ----------------------------
   Total Energy        :    -622.099758954032 Eh
   Energy Change       :      -0.043536365456 Eh
   MAX-DP              :       2.252713013196
   RMS-DP              :       0.090403890159
   Actual Damping      :       0.0000
   Actual Level Shift  :       0.2500 Eh
   Int. Num. El.       :    36.00031565 (UP=   18.00015782 DN=   18.00015782)
   Exchange            :   -34.14440651
   Correlation         :    -1.51840366
   DIIS-Error          :       0.051490073043

==>> SHARK/AuxDens: NDens=1 Thresh =     2.500000e-11 TCut=    2.500000e-12 Lmax=2 LmaxAux=4
    -> Making Hermite density - ok     0.000 sec
    -> Making Aux-basis density - (lmax=2)
    -> L=0 0:    0.001 sec done=      1190 (100.0%) skipped=         0 
    -> L=1 0:    0.001 sec done=      1365 (100.0%) skipped=         0 
    -> L=1 1:    0.001 sec done=       525 (100.0%) skipped=         0 
    -> L=2 0:    0.000 sec done=       560 (100.0%) skipped=         0 
    -> L=2 1:    0.000 sec done=       350 (100.0%) skipped=         0 
    -> L=2 2:    0.000 sec done=       105 (100.0%) skipped=         0 
    -> Aux basis density formed in    0.0 sec
    -> Solving linear equations - ok (   0.0 sec)
        Auxbasis Hermite Density:
        P|s>                     ...  0.457
        P|p>                     ...  0.457
        P|d>                     ...  0.457
        P|f>                     ...  0.457
        P|g>                     ...  0.457
        Building the Coulomb matrix: 
        J|ss>                          ... done (  0.0 sec) ndone=     9754 nskipped1=        0 nskipped2=       20
        J|ps>                          ... done (  0.0 sec) ndone=    10534 nskipped1=        0 nskipped2=       50
        J|pp>                          ... done (  0.0 sec) ndone=     4999 nskipped1=        0 nskipped2=       77
        J|ds>                          ... done (  0.0 sec) ndone=     2158 nskipped1=        0 nskipped2=        2
        J|dp>                          ... done (  0.0 sec) ndone=     1404 nskipped1=        0 nskipped2=        0
        J|dd>                          ... done (  0.0 sec) ndone=      162 nskipped1=        0 nskipped2=        0
        Coulomb matrix built in   0.0 sec

        Total time for Split-RI-J                ...    0.007 sec
          (0) Prelude                            ...    0.000 sec
          (1) Hermite density                    ...    0.000 sec
          (2) Aux basis density                  ...    0.000 sec (inner=  0.0)
          (3) Linear equation solution           ...    0.000 sec
          (4) J-Matrix construction              ...    0.003 sec (inner=  0.0)
        ---------------------------------------------------------

                         ----------------------------
                         !        ITERATION     3   !
                         ----------------------------
   Total Energy        :    -622.184476020655 Eh
   Energy Change       :      -0.084717066624 Eh
   MAX-DP              :       0.117116733603
   RMS-DP              :       0.009062131967
   Actual Damping      :       0.0000
   Actual Level Shift  :       0.2500 Eh
   Int. Num. El.       :    36.00008313 (UP=   18.00004157 DN=   18.00004157)
   Exchange            :   -33.98454189
   Correlation         :    -1.50732461
   DIIS-Error          :       0.043678332276
   DIIS coefficients:
      0.40892   0.59108

==>> SHARK/AuxDens: NDens=1 Thresh =     2.500000e-11 TCut=    2.500000e-12 Lmax=2 LmaxAux=4
    -> Making Hermite density - ok     0.000 sec
    -> Making Aux-basis density - (lmax=2)
    -> L=0 0:    0.001 sec done=      1190 (100.0%) skipped=         0 
    -> L=1 0:    0.001 sec done=      1365 (100.0%) skipped=         0 
    -> L=1 1:    0.001 sec done=       525 (100.0%) skipped=         0 
    -> L=2 0:    0.000 sec done=       560 (100.0%) skipped=         0 
    -> L=2 1:    0.000 sec done=       350 (100.0%) skipped=         0 
    -> L=2 2:    0.000 sec done=       105 (100.0%) skipped=         0 
    -> Aux basis density formed in    0.0 sec
    -> Solving linear equations - ok (   0.0 sec)
        Auxbasis Hermite Density:
        P|s>                     ...  0.457
        P|p>                     ...  0.457
        P|d>                     ...  0.457
        P|f>                     ...  0.457
        P|g>                     ...  0.457
        Building the Coulomb matrix: 
        J|ss>                          ... done (  0.0 sec) ndone=     9714 nskipped1=       15 nskipped2=       15
        J|ps>                          ... done (  0.0 sec) ndone=    10534 nskipped1=        0 nskipped2=       50
        J|pp>                          ... done (  0.0 sec) ndone=     4999 nskipped1=        0 nskipped2=       77
        J|ds>                          ... done (  0.0 sec) ndone=     2158 nskipped1=        0 nskipped2=        2
        J|dp>                          ... done (  0.0 sec) ndone=     1404 nskipped1=        0 nskipped2=        0
        J|dd>                          ... done (  0.0 sec) ndone=      162 nskipped1=        0 nskipped2=        0
        Coulomb matrix built in   0.0 sec

        Total time for Split-RI-J                ...    0.006 sec
          (0) Prelude                            ...    0.000 sec
          (1) Hermite density                    ...    0.000 sec
          (2) Aux basis density                  ...    0.000 sec (inner=  0.0)
          (3) Linear equation solution           ...    0.000 sec
          (4) J-Matrix construction              ...    0.002 sec (inner=  0.0)
        ---------------------------------------------------------

                         ----------------------------
                         !        ITERATION     4   !
                         ----------------------------
   Total Energy        :    -622.190262808048 Eh
   Energy Change       :      -0.005786787392 Eh
   MAX-DP              :       0.070702423261
   RMS-DP              :       0.004902222610
   Actual Damping      :       0.0000
   Actual Level Shift  :       0.2500 Eh
   Int. Num. El.       :    36.00006794 (UP=   18.00003397 DN=   18.00003397)
   Exchange            :   -34.03282958
   Correlation         :    -1.50885369
   DIIS-Error          :       0.006801459176
   DIIS coefficients:
      0.01728  -0.12849   1.11120

==>> SHARK/AuxDens: NDens=1 Thresh =     2.500000e-11 TCut=    2.500000e-12 Lmax=2 LmaxAux=4
    -> Making Hermite density - ok     0.001 sec
    -> Making Aux-basis density - (lmax=2)
    -> L=0 0:    0.001 sec done=      1184 ( 99.5%) skipped=         6 
    -> L=1 0:    0.001 sec done=      1364 ( 99.9%) skipped=         1 
    -> L=1 1:    0.001 sec done=       525 (100.0%) skipped=         0 
    -> L=2 0:    0.000 sec done=       560 (100.0%) skipped=         0 
    -> L=2 1:    0.000 sec done=       350 (100.0%) skipped=         0 
    -> L=2 2:    0.000 sec done=       105 (100.0%) skipped=         0 
    -> Aux basis density formed in    0.0 sec
    -> Solving linear equations - ok (   0.0 sec)
        Auxbasis Hermite Density:
        P|s>                     ...  0.457
        P|p>                     ...  0.457
        P|d>                     ...  0.457
        P|f>                     ...  0.457
        P|g>                     ...  0.457
        Building the Coulomb matrix: 
        J|ss>                          ... done (  0.0 sec) ndone=     9719 nskipped1=       10 nskipped2=       15
        J|ps>                          ... done (  0.0 sec) ndone=    10534 nskipped1=        0 nskipped2=       50
        J|pp>                          ... done (  0.0 sec) ndone=     4999 nskipped1=        0 nskipped2=       77
        J|ds>                          ... done (  0.0 sec) ndone=     2158 nskipped1=        0 nskipped2=        2
        J|dp>                          ... done (  0.0 sec) ndone=     1404 nskipped1=        0 nskipped2=        0
        J|dd>                          ... done (  0.0 sec) ndone=      162 nskipped1=        0 nskipped2=        0
        Coulomb matrix built in   0.0 sec

        Total time for Split-RI-J                ...    0.009 sec
          (0) Prelude                            ...    0.000 sec
          (1) Hermite density                    ...    0.000 sec
          (2) Aux basis density                  ...    0.000 sec (inner=  0.0)
          (3) Linear equation solution           ...    0.000 sec
          (4) J-Matrix construction              ...    0.003 sec (inner=  0.0)
        ---------------------------------------------------------

                         ----------------------------
                         !        ITERATION     5   !
                         ----------------------------
   Total Energy        :    -622.190635820604 Eh
   Energy Change       :      -0.000373012556 Eh
   MAX-DP              :       0.050881798360
   RMS-DP              :       0.003429311042
   Actual Damping      :       0.0000
   Actual Level Shift  :       0.2500 Eh
   Int. Num. El.       :    36.00006581 (UP=   18.00003291 DN=   18.00003291)
   Exchange            :   -34.03578449
   Correlation         :    -1.50898638
   DIIS-Error          :       0.002939810670
   DIIS coefficients:
     -0.01900  -0.03522  -0.03213   1.08635

==>> SHARK/AuxDens: NDens=1 Thresh =     2.500000e-11 TCut=    2.500000e-12 Lmax=2 LmaxAux=4
    -> Making Hermite density - ok     0.000 sec
    -> Making Aux-basis density - (lmax=2)
    -> L=0 0:    0.001 sec done=      1181 ( 99.2%) skipped=         9 
    -> L=1 0:    0.001 sec done=      1359 ( 99.6%) skipped=         6 
    -> L=1 1:    0.001 sec done=       525 (100.0%) skipped=         0 
    -> L=2 0:    0.000 sec done=       560 (100.0%) skipped=         0 
    -> L=2 1:    0.000 sec done=       350 (100.0%) skipped=         0 
    -> L=2 2:    0.000 sec done=       105 (100.0%) skipped=         0 
    -> Aux basis density formed in    0.0 sec
    -> Solving linear equations - ok (   0.0 sec)
        Auxbasis Hermite Density:
        P|s>                     ...  0.457
        P|p>                     ...  0.457
        P|d>                     ...  0.457
        P|f>                     ...  0.457
        P|g>                     ...  0.457
        Building the Coulomb matrix: 
        J|ss>                          ... done (  0.0 sec) ndone=     9689 nskipped1=       30 nskipped2=       15
        J|ps>                          ... done (  0.1 sec) ndone=    10506 nskipped1=        5 nskipped2=       43
        J|pp>                          ... done (  0.0 sec) ndone=     4999 nskipped1=        0 nskipped2=       77
        J|ds>                          ... done (  0.0 sec) ndone=     2158 nskipped1=        0 nskipped2=        2
        J|dp>                          ... done (  0.0 sec) ndone=     1404 nskipped1=        0 nskipped2=        0
        J|dd>                          ... done (  0.0 sec) ndone=      162 nskipped1=        0 nskipped2=        0
        Coulomb matrix built in   0.1 sec

        Total time for Split-RI-J                ...    0.067 sec
          (0) Prelude                            ...    0.000 sec
          (1) Hermite density                    ...    0.000 sec
          (2) Aux basis density                  ...    0.000 sec (inner=  0.0)
          (3) Linear equation solution           ...    0.000 sec
          (4) J-Matrix construction              ...    0.063 sec (inner=  0.1)
        ---------------------------------------------------------
                      *** Initiating the SOSCF procedure ***
                           *** Shutting down DIIS ***
                      *** Re-Reading the Fockian *** 
                      *** Removing any level shift *** 

                         ----------------------------
                         !        ITERATION     6   !
                         ----------------------------
   Total Energy        :    -622.190749033204 Eh
   Energy Change       :      -0.000113212600 Eh
   MAX-DP              :       0.036088486148
   RMS-DP              :       0.002335828395
   Orbital gradient    :       0.002406996397
   Orbital Rotation    :       0.002406996397
   Actual Damping      :       0.0000
   Int. Num. El.       :    36.00006526 (UP=   18.00003263 DN=   18.00003263)
   Exchange            :   -34.03875863
   Correlation         :    -1.50908553

               *** Restarting incremental Fock matrix formation ***
==>> SHARK/AuxDens: NDens=1 Thresh =     2.500000e-11 TCut=    2.500000e-12 Lmax=2 LmaxAux=4
    -> Making Hermite density - ok     0.000 sec
    -> Making Aux-basis density - (lmax=2)
    -> L=0 0:    0.001 sec done=      1190 (100.0%) skipped=         0 
    -> L=1 0:    0.001 sec done=      1365 (100.0%) skipped=         0 
    -> L=1 1:    0.001 sec done=       525 (100.0%) skipped=         0 
    -> L=2 0:    0.000 sec done=       560 (100.0%) skipped=         0 
    -> L=2 1:    0.000 sec done=       350 (100.0%) skipped=         0 
    -> L=2 2:    0.000 sec done=       105 (100.0%) skipped=         0 
    -> Aux basis density formed in    0.0 sec
    -> Solving linear equations - ok (   0.0 sec)
        Auxbasis Hermite Density:
        P|s>                     ...  0.457
        P|p>                     ...  0.457
        P|d>                     ...  0.457
        P|f>                     ...  0.457
        P|g>                     ...  0.457
        Building the Coulomb matrix: 
        J|ss>                          ... done (  0.0 sec) ndone=     9754 nskipped1=        0 nskipped2=       20
        J|ps>                          ... done (  0.0 sec) ndone=    10534 nskipped1=        0 nskipped2=       50
        J|pp>                          ... done (  0.0 sec) ndone=     4999 nskipped1=        0 nskipped2=       77
        J|ds>                          ... done (  0.0 sec) ndone=     2158 nskipped1=        0 nskipped2=        2
        J|dp>                          ... done (  0.0 sec) ndone=     1404 nskipped1=        0 nskipped2=        0
        J|dd>                          ... done (  0.0 sec) ndone=      162 nskipped1=        0 nskipped2=        0
        Coulomb matrix built in   0.0 sec

        Total time for Split-RI-J                ...    0.006 sec
          (0) Prelude                            ...    0.000 sec
          (1) Hermite density                    ...    0.000 sec
          (2) Aux basis density                  ...    0.000 sec (inner=  0.0)
          (3) Linear equation solution           ...    0.000 sec
          (4) J-Matrix construction              ...    0.002 sec (inner=  0.0)
        ---------------------------------------------------------

                         ----------------------------
                         !        ITERATION     7   !
                         ----------------------------
   Total Energy        :    -622.190787676194 Eh
   Energy Change       :      -0.000038642990 Eh
   MAX-DP              :       0.050367510293
   RMS-DP              :       0.003338868128
   Orbital gradient    :       0.001356965259
   Orbital Rotation    :       0.007777088267
   Actual Damping      :       0.0000
   Int. Num. El.       :    36.00006519 (UP=   18.00003260 DN=   18.00003260)
   Exchange            :   -34.03827140
   Correlation         :    -1.50906799

==>> SHARK/AuxDens: NDens=1 Thresh =     2.500000e-11 TCut=    2.500000e-12 Lmax=2 LmaxAux=4
    -> Making Hermite density - ok     0.000 sec
    -> Making Aux-basis density - (lmax=2)
    -> L=0 0:    0.001 sec done=      1181 ( 99.2%) skipped=         9 
    -> L=1 0:    0.001 sec done=      1356 ( 99.3%) skipped=         9 
    -> L=1 1:    0.001 sec done=       525 (100.0%) skipped=         0 
    -> L=2 0:    0.000 sec done=       560 (100.0%) skipped=         0 
    -> L=2 1:    0.000 sec done=       350 (100.0%) skipped=         0 
    -> L=2 2:    0.000 sec done=       105 (100.0%) skipped=         0 
    -> Aux basis density formed in    0.0 sec
    -> Solving linear equations - ok (   0.0 sec)
        Auxbasis Hermite Density:
        P|s>                     ...  0.457
        P|p>                     ...  0.457
        P|d>                     ...  0.457
        P|f>                     ...  0.457
        P|g>                     ...  0.457
        Building the Coulomb matrix: 
        J|ss>                          ... done (  0.0 sec) ndone=     9689 nskipped1=       35 nskipped2=       15
        J|ps>                          ... done (  0.0 sec) ndone=    10501 nskipped1=       10 nskipped2=       43
        J|pp>                          ... done (  0.0 sec) ndone=     4999 nskipped1=        0 nskipped2=       77
        J|ds>                          ... done (  0.0 sec) ndone=     2158 nskipped1=        0 nskipped2=        2
        J|dp>                          ... done (  0.0 sec) ndone=     1404 nskipped1=        0 nskipped2=        0
        J|dd>                          ... done (  0.0 sec) ndone=      162 nskipped1=        0 nskipped2=        0
        Coulomb matrix built in   0.0 sec

        Total time for Split-RI-J                ...    0.006 sec
          (0) Prelude                            ...    0.000 sec
          (1) Hermite density                    ...    0.000 sec
          (2) Aux basis density                  ...    0.000 sec (inner=  0.0)
          (3) Linear equation solution           ...    0.000 sec
          (4) J-Matrix construction              ...    0.002 sec (inner=  0.0)
        ---------------------------------------------------------

                         ----------------------------
                         !        ITERATION     8   !
                         ----------------------------
   Total Energy        :    -622.190813967153 Eh
   Energy Change       :      -0.000026290959 Eh
   MAX-DP              :       0.013963659610
   RMS-DP              :       0.000879176640
   Orbital gradient    :       0.000262465758
   Orbital Rotation    :       0.001939791958
   Actual Damping      :       0.0000
   Int. Num. El.       :    36.00006571 (UP=   18.00003286 DN=   18.00003286)
   Exchange            :   -34.03810157
   Correlation         :    -1.50906192

==>> SHARK/AuxDens: NDens=1 Thresh =     2.500000e-11 TCut=    2.500000e-12 Lmax=2 LmaxAux=4
    -> Making Hermite density - ok     0.000 sec
    -> Making Aux-basis density - (lmax=2)
    -> L=0 0:    0.001 sec done=      1158 ( 97.3%) skipped=        32 
    -> L=1 0:    0.001 sec done=      1336 ( 97.9%) skipped=        29 
    -> L=1 1:    0.001 sec done=       525 (100.0%) skipped=         0 
    -> L=2 0:    0.000 sec done=       560 (100.0%) skipped=         0 
    -> L=2 1:    0.000 sec done=       350 (100.0%) skipped=         0 
    -> L=2 2:    0.000 sec done=       105 (100.0%) skipped=         0 
    -> Aux basis density formed in    0.0 sec
    -> Solving linear equations - ok (   0.0 sec)
        Auxbasis Hermite Density:
        P|s>                     ...  0.457
        P|p>                     ...  0.457
        P|d>                     ...  0.457
        P|f>                     ...  0.457
        P|g>                     ...  0.457
        Building the Coulomb matrix: 
        J|ss>                          ... done (  0.0 sec) ndone=     9629 nskipped1=       75 nskipped2=       15
        J|ps>                          ... done (  0.0 sec) ndone=    10462 nskipped1=       35 nskipped2=       42
        J|pp>                          ... done (  0.0 sec) ndone=     4999 nskipped1=        0 nskipped2=       77
        J|ds>                          ... done (  0.0 sec) ndone=     2158 nskipped1=        0 nskipped2=        2
        J|dp>                          ... done (  0.0 sec) ndone=     1404 nskipped1=        0 nskipped2=        0
        J|dd>                          ... done (  0.0 sec) ndone=      162 nskipped1=        0 nskipped2=        0
        Coulomb matrix built in   0.0 sec

        Total time for Split-RI-J                ...    0.006 sec
          (0) Prelude                            ...    0.000 sec
          (1) Hermite density                    ...    0.000 sec
          (2) Aux basis density                  ...    0.000 sec (inner=  0.0)
          (3) Linear equation solution           ...    0.000 sec
          (4) J-Matrix construction              ...    0.002 sec (inner=  0.0)
        ---------------------------------------------------------

                         ----------------------------
                         !        ITERATION     9   !
                         ----------------------------
   Total Energy        :    -622.190815185353 Eh
   Energy Change       :      -0.000001218200 Eh
   MAX-DP              :       0.000175896892
   RMS-DP              :       0.000011713030
   Orbital gradient    :       0.000028878396
   Orbital Rotation    :       0.000036246364
   Actual Damping      :       0.0000
   Int. Num. El.       :    36.00006607 (UP=   18.00003304 DN=   18.00003304)
   Exchange            :   -34.03812682
   Correlation         :    -1.50906513

==>> SHARK/AuxDens: NDens=1 Thresh =     2.500000e-11 TCut=    2.500000e-12 Lmax=2 LmaxAux=4
    -> Making Hermite density - ok     0.000 sec
    -> Making Aux-basis density - (lmax=2)
    -> L=0 0:    0.001 sec done=      1140 ( 95.8%) skipped=        50 
    -> L=1 0:    0.001 sec done=      1278 ( 93.6%) skipped=        87 
    -> L=1 1:    0.001 sec done=       525 (100.0%) skipped=         0 
    -> L=2 0:    0.000 sec done=       542 ( 96.8%) skipped=        18 
    -> L=2 1:    0.000 sec done=       350 (100.0%) skipped=         0 
    -> L=2 2:    0.000 sec done=       105 (100.0%) skipped=         0 
    -> Aux basis density formed in    0.0 sec
    -> Solving linear equations - ok (   0.0 sec)
        Auxbasis Hermite Density:
        P|s>                     ...  0.457
        P|p>                     ...  0.457
        P|d>                     ...  0.457
        P|f>                     ...  0.457
        P|g>                     ...  0.457
        Building the Coulomb matrix: 
        J|ss>                          ... done (  0.0 sec) ndone=     9374 nskipped1=      229 nskipped2=        6
        J|ps>                          ... done (  0.0 sec) ndone=    10117 nskipped1=      244 nskipped2=       29
        J|pp>                          ... done (  0.0 sec) ndone=     4999 nskipped1=        0 nskipped2=       77
        J|ds>                          ... done (  0.0 sec) ndone=     2114 nskipped1=       15 nskipped2=        1
        J|dp>                          ... done (  0.0 sec) ndone=     1404 nskipped1=        0 nskipped2=        0
        J|dd>                          ... done (  0.0 sec) ndone=      162 nskipped1=        0 nskipped2=        0
        Coulomb matrix built in   0.0 sec

        Total time for Split-RI-J                ...    0.007 sec
          (0) Prelude                            ...    0.000 sec
          (1) Hermite density                    ...    0.000 sec
          (2) Aux basis density                  ...    0.000 sec (inner=  0.0)
          (3) Linear equation solution           ...    0.000 sec
          (4) J-Matrix construction              ...    0.003 sec (inner=  0.0)
        ---------------------------------------------------------

                         ----------------------------
                         !        ITERATION    10   !
                         ----------------------------
   Total Energy        :    -622.190815195097 Eh
   Energy Change       :      -0.000000009744 Eh
   MAX-DP              :       0.000165657117
   RMS-DP              :       0.000009569046
   Orbital gradient    :       0.000016974889
   Orbital Rotation    :       0.000014744317
   Actual Damping      :       0.0000
   Int. Num. El.       :    36.00006606 (UP=   18.00003303 DN=   18.00003303)
   Exchange            :   -34.03815564
   Correlation         :    -1.50906622

==>> SHARK/AuxDens: NDens=1 Thresh =     2.500000e-11 TCut=    2.500000e-12 Lmax=2 LmaxAux=4
    -> Making Hermite density - ok     0.000 sec
    -> Making Aux-basis density - (lmax=2)
    -> L=0 0:    0.001 sec done=      1122 ( 94.3%) skipped=        68 
    -> L=1 0:    0.001 sec done=      1267 ( 92.8%) skipped=        98 
    -> L=1 1:    0.001 sec done=       497 ( 94.7%) skipped=        28 
    -> L=2 0:    0.000 sec done=       530 ( 94.6%) skipped=        30 
    -> L=2 1:    0.000 sec done=       350 (100.0%) skipped=         0 
    -> L=2 2:    0.000 sec done=       105 (100.0%) skipped=         0 
    -> Aux basis density formed in    0.0 sec
    -> Solving linear equations - ok (   0.0 sec)
        Auxbasis Hermite Density:
        P|s>                     ...  0.457
        P|p>                     ...  0.457
        P|d>                     ...  0.457
        P|f>                     ...  0.457
        P|g>                     ...  0.457
        Building the Coulomb matrix: 
        J|ss>                          ... done (  0.0 sec) ndone=     9233 nskipped1=      310 nskipped2=        0
        J|ps>                          ... done (  0.0 sec) ndone=     9855 nskipped1=      369 nskipped2=       11
        J|pp>                          ... done (  0.0 sec) ndone=     4925 nskipped1=       24 nskipped2=       55
        J|ds>                          ... done (  0.0 sec) ndone=     2005 nskipped1=       65 nskipped2=        0
        J|dp>                          ... done (  0.0 sec) ndone=     1404 nskipped1=        0 nskipped2=        0
        J|dd>                          ... done (  0.0 sec) ndone=      162 nskipped1=        0 nskipped2=        0
        Coulomb matrix built in   0.0 sec

        Total time for Split-RI-J                ...    0.007 sec
          (0) Prelude                            ...    0.000 sec
          (1) Hermite density                    ...    0.000 sec
          (2) Aux basis density                  ...    0.000 sec (inner=  0.0)
          (3) Linear equation solution           ...    0.000 sec
          (4) J-Matrix construction              ...    0.003 sec (inner=  0.0)
        ---------------------------------------------------------
                  ***Gradient check signals convergence***
              ***Rediagonalizing the Fockian in SOSCF/NRSCF***

               *****************************************************
               *                     SUCCESS                       *
               *           SCF CONVERGED AFTER  11 CYCLES          *
               *****************************************************

Old exchange energy                            =     -8.576870443 Eh
New exchange energy                            =     -8.576966543 Eh
Exchange energy change after final integration =     -0.000096100 Eh
Total energy after final integration           =   -622.190911295 Eh
Final COS-X integration done in                =     0.521 sec

----------------
TOTAL SCF ENERGY
----------------

Total Energy       :         -622.19091129 Eh          -16930.67544 eV

Components:
Nuclear Repulsion  :           41.16024620 Eh            1120.02724 eV
Electronic Energy  :         -663.35115749 Eh          -18050.70268 eV
One Electron Energy:         -988.46491777 Eh          -26897.49786 eV
Two Electron Energy:          325.11376028 Eh            8846.79518 eV
Max COSX asymmetry :            0.00000561 Eh               0.00015 eV
CPCM Dielectric    :           -4.88192072 Eh            -132.84382 eV

Virial components:
Potential Energy   :        -1244.50741151 Eh          -33864.76832 eV
Kinetic Energy     :          622.31650021 Eh           16934.09288 eV
Virial Ratio       :            1.99979819


DFT components:
N(Alpha)           :       18.000033025993 electrons
N(Beta)            :       18.000033025993 electrons
N(Total)           :       36.000066051986 electrons
E(X)               :      -34.038135395463 Eh       
E(C)               :       -1.509065424684 Eh       
E(XC)              :      -35.547200820148 Eh       
DFET-embed. en.    :        0.000000000000 Eh       
CPCM Solvation Model Properties:
Surface-charge          :            7.36411470
Charge-correction       :           -0.42154987 Eh             -11.47096 eV
Free-energy (cav+disp)  :  This term is not implemented in the current solvation scheme

---------------
SCF CONVERGENCE
---------------

  Last Energy change         ...    8.9881e-10  Tolerance :   1.0000e-08
  Last MAX-Density change    ...    3.9968e-15  Tolerance :   1.0000e-07
  Last RMS-Density change    ...    2.8616e-16  Tolerance :   5.0000e-09
  Last Orbital Gradient      ...    1.4808e-06  Tolerance :   1.0000e-05
  Last Orbital Rotation      ...    2.0841e-06  Tolerance :   1.0000e-05

             **** THE GBW FILE WAS UPDATED (NaCl_DFT.gbw) ****
             **** DENSITY NaCl_DFT.scfp WAS UPDATED ****
             **** ENERGY FILE WAS UPDATED (NaCl_DFT.en.tmp) ****
             **** THE GBW FILE WAS UPDATED (NaCl_DFT.gbw) ****
             **** DENSITY NaCl_DFT.scfp WAS UPDATED ****
----------------
ORBITAL ENERGIES
----------------

  NO   OCC          E(Eh)            E(eV) 
   0   2.0000    -101.237549     -2754.8138 
   1   2.0000     -38.036935     -1035.0376 
   2   2.0000      -9.190178      -250.0775 
   3   2.0000      -6.953277      -189.2083 
   4   2.0000      -6.952567      -189.1890 
   5   2.0000      -6.952548      -189.1885 
   6   2.0000      -1.834344       -49.9150 
   7   2.0000      -0.770198       -20.9582 
   8   2.0000      -0.768021       -20.8989 
   9   2.0000      -0.768011       -20.8987 
  10   2.0000      -0.556394       -15.1403 
  11   2.0000      -0.117102        -3.1865 
  12   2.0000      -0.117047        -3.1850 
  13   2.0000      -0.109513        -2.9800 
  14   2.0000      -0.042104        -1.1457 
  15   2.0000       0.044866         1.2209 
  16   2.0000       0.045048         1.2258 
  17   2.0000       0.066285         1.8037 
  18   0.0000       0.240930         6.5560 
  19   0.0000       0.396365        10.7856 
  20   0.0000       0.396437        10.7876 
  21   0.0000       0.423745        11.5307 
  22   0.0000       0.423965        11.5367 
  23   0.0000       0.494689        13.4612 
  24   0.0000       0.784139        21.3375 
  25   0.0000       1.011445        27.5228 
  26   0.0000       1.011482        27.5238 
  27   0.0000       1.018265        27.7084 
  28   0.0000       1.025697        27.9106 
  29   0.0000       1.025718        27.9112 
  30   0.0000       1.144906        31.1545 
  31   0.0000       1.144970        31.1562 
  32   0.0000       1.196028        32.5456 

                    ********************************
                    * MULLIKEN POPULATION ANALYSIS *
                    ********************************

-----------------------
MULLIKEN ATOMIC CHARGES
-----------------------
   0 Na:   -7.327314
   1 Cl:   -0.672686
Sum of atomic charges:   -8.0000000

--------------------------------
MULLIKEN REDUCED ORBITAL CHARGES
--------------------------------
  0 Nas       :     6.134281  s :     6.134281
      pz      :     4.163892  p :    12.185954
      px      :     4.009068
      py      :     4.012994
      dz2     :    -0.029995  d :     0.007079
      dxz     :     0.019022
      dyz     :     0.014568
      dx2y2   :     0.001873
      dxy     :     0.001612
  1 Cls       :     5.800672  s :     5.800672
      pz      :     3.934673  p :    11.867224
      px      :     3.966615
      py      :     3.965936
      dz2     :     0.001153  d :     0.004790
      dxz     :     0.001710
      dyz     :     0.001652
      dx2y2   :     0.000140
      dxy     :     0.000135

------------------------
MULLIKEN OVERLAP CHARGES
------------------------
B(  0-Na,  1-Cl) :  -3.0138 


                     *******************************
                     * LOEWDIN POPULATION ANALYSIS *
                     *******************************

----------------------
LOEWDIN ATOMIC CHARGES
----------------------
   0 Na:   -7.337156
   1 Cl:   -0.662844

-------------------------------
LOEWDIN REDUCED ORBITAL CHARGES
-------------------------------
  0 Nas       :     6.142739  s :     6.142739
      pz      :     3.902939  p :    11.875033
      px      :     3.987096
      py      :     3.984998
      dz2     :     0.159183  d :     0.319384
      dxz     :     0.071260
      dyz     :     0.078574
      dx2y2   :     0.005034
      dxy     :     0.005333
  1 Cls       :     5.858092  s :     5.858092
      pz      :     3.919950  p :    11.797035
      px      :     3.938733
      py      :     3.938352
      dz2     :     0.001613  d :     0.007718
      dxz     :     0.002884
      dyz     :     0.002755
      dx2y2   :     0.000239
      dxy     :     0.000227

---------------------------------
LOEWDIN BOND ORDERS (THRESH 0.050000)
---------------------------------
B(  0-Na,  1-Cl) :   0.7008 

------------------------------------------
LOEWDIN REDUCED ORBITAL POPULATIONS PER MO
-------------------------------------------
THRESHOLD FOR PRINTING IS 0.1%
                      0         1         2         3         4         5   
                 -101.23755 -38.03693  -9.19018  -6.95328  -6.95257  -6.95255
                   2.00000   2.00000   2.00000   2.00000   2.00000   2.00000
                  --------  --------  --------  --------  --------  --------
 0 Na s               0.0     100.0       0.0       0.0       0.0       0.0
 1 Cl s             100.0       0.0      99.9       0.0       0.0       0.0
 1 Cl pz              0.0       0.0       0.0      94.1       4.4       1.6
 1 Cl px              0.0       0.0       0.0       2.2      83.4      14.4
 1 Cl py              0.0       0.0       0.0       3.8      12.2      84.0

                      6         7         8         9        10        11   
                  -1.83434  -0.77020  -0.76802  -0.76801  -0.55639  -0.11710
                   2.00000   2.00000   2.00000   2.00000   2.00000   2.00000
                  --------  --------  --------  --------  --------  --------
 0 Na s              99.9       0.0       0.0       0.0       3.0       0.0
 0 Na pz              0.0      91.7       0.4       7.0       5.3       0.0
 0 Na px              0.0       2.4      85.4      12.2       0.1       4.0
 0 Na py              0.0       4.9      14.2      80.8       0.3       2.6
 0 Na dz2             0.0       0.0       0.0       0.0       2.8       0.0
 0 Na dxz             0.0       0.0       0.0       0.0       0.3       1.4
 0 Na dyz             0.0       0.0       0.0       0.0       0.5       0.9
 0 Na dx2y2           0.0       0.0       0.0       0.0       0.0       0.2
 1 Cl s               0.0       0.5       0.0       0.0      87.2       0.0
 1 Cl pz              0.1       0.5       0.0       0.0       0.5       0.1
 1 Cl px              0.0       0.0       0.0       0.0       0.0      55.5
 1 Cl py              0.0       0.0       0.0       0.0       0.0      35.2

                     12        13        14        15        16        17   
                  -0.11705  -0.10951  -0.04210   0.04487   0.04505   0.06629
                   2.00000   2.00000   2.00000   2.00000   2.00000   2.00000
                  --------  --------  --------  --------  --------  --------
 0 Na s               0.0       5.9      89.9       0.0       0.0       8.4
 0 Na pz              0.5       1.0       5.6       0.1       6.8      76.9
 0 Na px              2.4       0.0       0.2      67.0      23.4       2.2
 0 Na py              3.7       0.0       0.3      25.8      62.7       3.9
 0 Na dz2             0.5       0.7       0.4       0.0       0.2       3.2
 0 Na dxz             0.7       0.1       0.0       0.6       0.2       0.3
 0 Na dyz             1.1       0.1       0.1       0.2       0.5       0.5
 0 Na dxy             0.2       0.0       0.0       0.0       0.0       0.0
 1 Cl s               0.0       0.2       0.9       0.0       0.0       4.2
 1 Cl pz              6.8      84.9       2.3       0.0       0.4       0.4
 1 Cl px             33.3       2.0       0.1       4.5       1.5       0.0
 1 Cl py             50.7       5.0       0.1       1.7       4.1       0.0
 1 Cl dxz             0.0       0.0       0.0       0.1       0.0       0.0

                     18        19        20        21        22        23   
                   0.24093   0.39636   0.39644   0.42375   0.42397   0.49469
                   0.00000   0.00000   0.00000   0.00000   0.00000   0.00000
                  --------  --------  --------  --------  --------  --------
 0 Na s              85.1       0.0       0.0       0.0       0.0       4.9
 0 Na pz              1.8       0.0       0.0       0.0       0.0       2.5
 0 Na px              0.0       0.0       0.0       0.1       0.0       0.1
 0 Na py              0.1       0.0       0.0       0.0       0.1       0.1
 0 Na dz2             6.6       0.1       0.3       1.1      17.8      62.8
 0 Na dxz             0.6       6.9       0.1      71.5       8.4       5.6
 0 Na dyz             1.1       0.1       6.9      13.6      60.5      10.5
 0 Na dx2y2           0.0      42.8      49.5       5.0       1.8       0.0
 0 Na dxy             0.0      49.7      42.8       1.7       4.5       0.3
 1 Cl s               1.0       0.0       0.0       0.0       0.0       9.2
 1 Cl pz              3.0       0.0       0.0       0.0       0.2       2.8
 1 Cl px              0.1       0.0       0.0       2.9       0.4       0.1
 1 Cl py              0.2       0.0       0.0       0.5       2.7       0.1
 1 Cl dz2             0.4       0.0       0.0       0.0       0.7       0.7
 1 Cl dxz             0.0       0.0       0.0       2.7       0.3       0.1
 1 Cl dyz             0.1       0.0       0.0       0.5       2.3       0.1
 1 Cl dx2y2           0.0       0.1       0.2       0.2       0.1       0.0
 1 Cl dxy             0.0       0.2       0.1       0.1       0.2       0.0

                     24        25        26        27        28        29   
                   0.78414   1.01144   1.01148   1.01827   1.02570   1.02572
                   0.00000   0.00000   0.00000   0.00000   0.00000   0.00000
                  --------  --------  --------  --------  --------  --------
 0 Na s               0.4       0.0       0.0       0.4       0.0       0.0
 0 Na pz              0.3       0.0       0.0       0.1       0.0       0.0
 0 Na dz2             1.3       0.0       0.0       0.9       0.0       0.3
 0 Na dxz             0.1       0.0       0.0       0.1       0.6       0.8
 0 Na dyz             0.2       0.0       0.0       0.2       0.9       0.4
 0 Na dx2y2           0.0       0.2       0.1       0.0       0.1       0.0
 0 Na dxy             0.0       0.1       0.2       0.0       0.0       0.1
 1 Cl s              84.6       0.0       0.0       0.5       0.0       0.0
 1 Cl pz              9.5       0.0       0.0       6.1       0.1       1.6
 1 Cl px              0.3       0.0       0.0       0.2       8.9      14.0
 1 Cl py              0.5       0.0       0.0       0.3      14.5       7.9
 1 Cl dz2             2.2       0.1       0.3      71.9       1.3      14.3
 1 Cl dxz             0.2       6.9       0.3       6.5      27.2      36.7
 1 Cl dyz             0.4       0.4       6.5      12.4      40.7      18.6
 1 Cl dx2y2           0.0      51.3      40.9       0.0       5.6       0.0
 1 Cl dxy             0.0      40.9      51.5       0.3       0.0       5.1

                     30        31        32   
                   1.14491   1.14497   1.19603
                   0.00000   0.00000   0.00000
                  --------  --------  --------
 0 Na s               0.0       0.0       2.1
 0 Na pz              0.0       0.0       0.2
 0 Na px              0.1       0.2       0.0
 0 Na py              0.2       0.1       0.0
 0 Na dz2             0.1       0.4       0.4
 0 Na dxz             0.6       1.2       0.0
 0 Na dyz             1.3       0.4       0.1
 0 Na dx2y2           0.1       0.0       0.0
 0 Na dxy             0.0       0.1       0.0
 1 Cl s               0.0       0.0      11.8
 1 Cl pz              0.9       4.7      74.9
 1 Cl px             21.2      53.0       2.0
 1 Cl py             54.0      18.4       3.9
 1 Cl dz2             0.7       3.7       3.6
 1 Cl dxz             5.9      12.5       0.3
 1 Cl dyz            13.4       3.8       0.6
 1 Cl dx2y2           1.6       0.0       0.0
 1 Cl dxy             0.0       1.5       0.0


                      *****************************
                      * MAYER POPULATION ANALYSIS *
                      *****************************

  NA   - Mulliken gross atomic population
[...]
   Exchange            :   -34.02501232
   Correlation         :    -1.49613578

               *** Restarting incremental Fock matrix formation ***
==>> SHARK/AuxDens: NDens=1 Thresh =     2.500000e-11 TCut=    2.500000e-12 Lmax=2 LmaxAux=4
    -> Making Hermite density - ok     0.000 sec
    -> Making Aux-basis density - (lmax=2)
    -> L=0 0:    0.001 sec done=      1015 ( 96.7%) skipped=        35 
    -> L=1 0:    0.001 sec done=      1119 ( 97.4%) skipped=        30 
    -> L=1 1:    0.001 sec done=       449 ( 98.7%) skipped=         6 
    -> L=2 0:    0.000 sec done=       457 ( 93.3%) skipped=        33 
    -> L=2 1:    0.000 sec done=       315 (100.0%) skipped=         0 
    -> L=2 2:    0.000 sec done=       105 (100.0%) skipped=         0 
    -> Aux basis density formed in    0.0 sec
    -> Solving linear equations - ok (   0.0 sec)
        Auxbasis Hermite Density:
        P|s>                     ...  0.000
        P|p>                     ...  0.000
        P|d>                     ...  0.000
        P|f>                     ...  0.000
        P|g>                     ...  0.000
        Building the Coulomb matrix: 
        J|ss>                          ... done (  0.0 sec) ndone=     8524 nskipped1=      172 nskipped2=      104
        J|ps>                          ... done (  0.1 sec) ndone=     8541 nskipped1=      257 nskipped2=      119
        J|pp>                          ... done (  0.0 sec) ndone=     4169 nskipped1=       80 nskipped2=       95
        J|ds>                          ... done (  0.0 sec) ndone=     1600 nskipped1=       36 nskipped2=       77
        J|dp>                          ... done (  0.0 sec) ndone=     1118 nskipped1=       10 nskipped2=        6
        J|dd>                          ... done (  0.0 sec) ndone=      162 nskipped1=        0 nskipped2=        0
        Coulomb matrix built in   0.1 sec

        Total time for Split-RI-J                ...    0.087 sec
          (0) Prelude                            ...    0.000 sec
          (1) Hermite density                    ...    0.000 sec
          (2) Aux basis density                  ...    0.000 sec (inner=  0.0)
          (3) Linear equation solution           ...    0.000 sec
          (4) J-Matrix construction              ...    0.083 sec (inner=  0.1)
        ---------------------------------------------------------
                 **** Energy Check signals convergence ****
              ***Rediagonalizing the Fockian in SOSCF/NRSCF***

               *****************************************************
               *                     SUCCESS                       *
               *           SCF CONVERGED AFTER   1 CYCLES          *
               *****************************************************

Old exchange energy                            =     -8.577989619 Eh
New exchange energy                            =     -8.578024227 Eh
Exchange energy change after final integration =     -0.000034608 Eh
Total energy after final integration           =   -622.348344506 Eh
Final COS-X integration done in                =     1.000 sec

----------------
TOTAL SCF ENERGY
----------------

Total Energy       :         -622.34834451 Eh          -16934.95941 eV

Components:
Nuclear Repulsion  :           16.51391539 Eh             449.36648 eV
Electronic Energy  :         -638.86225990 Eh          -17384.32589 eV
One Electron Energy:         -931.18579924 Eh          -25338.85380 eV
Two Electron Energy:          292.32353935 Eh            7954.52791 eV
Max COSX asymmetry :            0.00000403 Eh               0.00011 eV
CPCM Dielectric    :           -4.59979976 Eh            -125.16691 eV

Virial components:
Potential Energy   :        -1244.46501858 Eh          -33863.61475 eV
Kinetic Energy     :          622.11667407 Eh           16928.65534 eV
Virial Ratio       :            2.00037239


DFT components:
N(Alpha)           :       17.997722466649 electrons
N(Beta)            :       17.997722466649 electrons
N(Total)           :       35.995444933298 electrons
E(X)               :      -34.025014082295 Eh       
E(C)               :       -1.496135865430 Eh       
E(XC)              :      -35.521149947725 Eh       
DFET-embed. en.    :        0.000000000000 Eh       
CPCM Solvation Model Properties:
Surface-charge          :            7.48843735
Charge-correction       :           -0.31422921 Eh              -8.55061 eV
Free-energy (cav+disp)  :  This term is not implemented in the current solvation scheme

---------------
SCF CONVERGENCE
---------------

  Last Energy change         ...   -2.6046e-10  Tolerance :   1.0000e-08
  Last MAX-Density change    ...    2.2204e-15  Tolerance :   1.0000e-07
  Last RMS-Density change    ...    2.0231e-16  Tolerance :   5.0000e-09
  Last Orbital Gradient      ...    2.1403e-06  Tolerance :   1.0000e-05
  Last Orbital Rotation      ...    4.0456e-06  Tolerance :   1.0000e-05

             **** THE GBW FILE WAS UPDATED (NaCl_DFT.gbw) ****
             **** DENSITY NaCl_DFT.scfp WAS UPDATED ****
             **** ENERGY FILE WAS UPDATED (NaCl_DFT.en.tmp) ****
             **** THE GBW FILE WAS UPDATED (NaCl_DFT.gbw) ****
             **** DENSITY NaCl_DFT.scfp WAS UPDATED ****
----------------
ORBITAL ENERGIES
----------------

  NO   OCC          E(Eh)            E(eV) 
   0   2.0000    -101.309233     -2756.7644 
   1   2.0000     -38.062094     -1035.7222 
   2   2.0000      -9.260785      -251.9988 
   3   2.0000      -7.023898      -191.1300 
   4   2.0000      -7.023896      -191.1299 
   5   2.0000      -7.023871      -191.1292 
   6   2.0000      -1.859331       -50.5950 
   7   2.0000      -0.793266       -21.5859 
   8   2.0000      -0.793265       -21.5858 
   9   2.0000      -0.793264       -21.5858 
  10   2.0000      -0.620505       -16.8848 
  11   2.0000      -0.173654        -4.7254 
  12   2.0000      -0.173176        -4.7124 
  13   2.0000      -0.173174        -4.7123 
  14   2.0000      -0.059956        -1.6315 
  15   2.0000       0.021996         0.5985 
  16   2.0000       0.022883         0.6227 
  17   2.0000       0.022888         0.6228 
  18   0.0000       0.194753         5.2995 
  19   0.0000       0.382967        10.4211 
  20   0.0000       0.382975        10.4213 
  21   0.0000       0.383075        10.4240 
  22   0.0000       0.383092        10.4245 
  23   0.0000       0.383108        10.4249 
  24   0.0000       0.551035        14.9944 
  25   0.0000       0.941971        25.6323 
  26   0.0000       0.942007        25.6333 
  27   0.0000       0.942051        25.6345 
  28   0.0000       0.942179        25.6380 
  29   0.0000       0.942290        25.6410 
  30   0.0000       0.996845        27.1255 
  31   0.0000       0.996854        27.1258 
  32   0.0000       0.999788        27.2056 

                    ********************************
                    * MULLIKEN POPULATION ANALYSIS *
                    ********************************

-----------------------
MULLIKEN ATOMIC CHARGES
-----------------------
   0 Na:   -7.000343
   1 Cl:   -0.999657
Sum of atomic charges:   -8.0000000

--------------------------------
MULLIKEN REDUCED ORBITAL CHARGES
--------------------------------
  0 Nas       :     6.001748  s :     6.001748
      pz      :     3.998695  p :    11.998578
      px      :     3.999957
      py      :     3.999926
      dz2     :     0.000012  d :     0.000017
      dxz     :     0.000002
      dyz     :     0.000003
      dx2y2   :     0.000000
      dxy     :     0.000000
  1 Cls       :     6.000870  s :     6.000870
      pz      :     3.998814  p :    11.998729
      px      :     3.999972
      py      :     3.999943
      dz2     :     0.000044  d :     0.000058
      dxz     :     0.000005
      dyz     :     0.000008
      dx2y2   :     0.000000
      dxy     :     0.000000

------------------------
MULLIKEN OVERLAP CHARGES
------------------------



                     *******************************
                     * LOEWDIN POPULATION ANALYSIS *
                     *******************************

----------------------
LOEWDIN ATOMIC CHARGES
----------------------
   0 Na:   -6.998371
   1 Cl:   -1.001629

-------------------------------
LOEWDIN REDUCED ORBITAL CHARGES
-------------------------------
  0 Nas       :     5.999688  s :     5.999688
      pz      :     3.998777  p :    11.998666
      px      :     3.999959
      py      :     3.999929
      dz2     :     0.000013  d :     0.000017
      dxz     :     0.000002
      dyz     :     0.000003
      dx2y2   :     0.000000
      dxy     :     0.000000
  1 Cls       :     6.001476  s :     6.001476
      pz      :     4.000060  p :    12.000075
      px      :     4.000007
      py      :     4.000008
      dz2     :     0.000060  d :     0.000078
      dxz     :     0.000007
      dyz     :     0.000011
      dx2y2   :     0.000000
      dxy     :     0.000000

---------------------------------
LOEWDIN BOND ORDERS (THRESH 0.050000)
---------------------------------


------------------------------------------
LOEWDIN REDUCED ORBITAL POPULATIONS PER MO
-------------------------------------------
THRESHOLD FOR PRINTING IS 0.1%
                      0         1         2         3         4         5   
                 -101.30923 -38.06209  -9.26079  -7.02390  -7.02390  -7.02387
                   2.00000   2.00000   2.00000   2.00000   2.00000   2.00000
                  --------  --------  --------  --------  --------  --------
 0 Na s               0.0     100.0       0.0       0.0       0.0       0.0
 1 Cl s             100.0       0.0     100.0       0.0       0.0       0.0
 1 Cl pz              0.0       0.0       0.0       1.6       5.2      93.1
 1 Cl px              0.0       0.0       0.0      16.7      80.8       2.5
 1 Cl py              0.0       0.0       0.0      81.7      14.0       4.4

                      6         7         8         9        10        11   
                  -1.85933  -0.79327  -0.79327  -0.79326  -0.62051  -0.17365
                   2.00000   2.00000   2.00000   2.00000   2.00000   2.00000
                  --------  --------  --------  --------  --------  --------
 0 Na s             100.0       0.0       0.0       0.0       0.0       0.5
 0 Na pz              0.0       1.0       0.2      98.8       0.0       0.2
 0 Na px              0.0      27.9      71.2       0.9       0.0       0.0
 0 Na py              0.0      71.1      28.5       0.3       0.0       0.0
 1 Cl s               0.0       0.0       0.0       0.0     100.0       0.0
 1 Cl pz              0.0       0.0       0.0       0.0       0.0      91.9
 1 Cl px              0.0       0.0       0.0       0.0       0.0       2.3
 1 Cl py              0.0       0.0       0.0       0.0       0.0       5.2

                     12        13        14        15        16        17   
                  -0.17318  -0.17317  -0.05996   0.02200   0.02288   0.02289
                   2.00000   2.00000   2.00000   2.00000   2.00000   2.00000
                  --------  --------  --------  --------  --------  --------
 0 Na s               0.0       0.0      99.5       0.0       0.0       0.0
 0 Na pz              0.0       0.0       0.0      92.1       3.6       4.1
 0 Na px              0.0       0.0       0.0       2.8      95.7       1.4
 0 Na py              0.0       0.0       0.0       4.8       0.7      94.5
 1 Cl pz              7.3       0.3       0.4       0.2       0.0       0.0
 1 Cl px             13.4      84.3       0.0       0.0       0.0       0.0
 1 Cl py             79.4      15.4       0.0       0.0       0.0       0.0

                     18        19        20        21        22        23   
                   0.19475   0.38297   0.38298   0.38308   0.38309   0.38311
                   0.00000   0.00000   0.00000   0.00000   0.00000   0.00000
                  --------  --------  --------  --------  --------  --------
 0 Na s              99.5       0.0       0.0       0.0       0.0       0.0
 0 Na dz2             0.0       5.1      14.5       0.2       0.2      80.0
 0 Na dxz             0.0      19.5      64.7       4.3       6.2       5.4
 0 Na dyz             0.0      67.6      12.5       4.1       1.9      13.9
 0 Na dx2y2           0.0       7.8       0.8      91.4       0.0       0.0
 0 Na dxy             0.0       0.0       7.5       0.1      91.8       0.6
 1 Cl s               0.3       0.0       0.0       0.0       0.0       0.0
 1 Cl pz              0.1       0.0       0.0       0.0       0.0       0.0

                     24        25        26        27        28        29   
                   0.55104   0.94197   0.94201   0.94205   0.94218   0.94229
                   0.00000   0.00000   0.00000   0.00000   0.00000   0.00000
                  --------  --------  --------  --------  --------  --------
 0 Na s               0.4       0.0       0.0       0.0       0.0       0.0
 1 Cl s              99.6       0.0       0.0       0.0       0.0       0.0
 1 Cl dz2             0.0       0.0       6.6      42.3       4.0      47.0
 1 Cl dxz             0.0       0.2      18.7      30.7       0.5      50.0
 1 Cl dyz             0.0       1.4       3.9       1.2      92.5       1.1
 1 Cl dx2y2           0.0      65.7      22.9       8.4       2.9       0.1
 1 Cl dxy             0.0      32.6      47.9      17.4       0.1       1.9

                     30        31        32   
                   0.99684   0.99685   0.99979
                   0.00000   0.00000   0.00000
                  --------  --------  --------
 0 Na s               0.0       0.0       0.1
 1 Cl pz              2.0       5.4      92.4
 1 Cl px             16.2      81.3       2.5
 1 Cl py             81.8      13.3       4.9


                      *****************************
                      * MAYER POPULATION ANALYSIS *
                      *****************************

  NA   - Mulliken gross atomic population
  ZA   - Total nuclear charge
  QA   - Mulliken gross atomic charge
  VA   - Mayer's total valence
  BVA  - Mayer's bonded valence
  FA   - Mayer's free valence

  ATOM       NA         ZA         QA         VA         BVA        FA
  0 Na    18.0003    11.0000    -7.0003     0.0060     0.0060     0.0000
  1 Cl    17.9997    17.0000    -0.9997     0.0060     0.0060     0.0000

  Mayer bond orders larger than 0.100000


-------
TIMINGS
-------

Total SCF time: 0 days 0 hours 0 min 4 sec 

Total time                  ....       4.897 sec
Sum of individual times     ....       4.309 sec  ( 88.0%)

Fock matrix formation       ....       3.492 sec  ( 71.3%)
  Split-RI-J                ....       0.576 sec  ( 16.5% of F)
  Chain of spheres X        ....       1.991 sec  ( 57.0% of F)
  XC integration            ....       0.497 sec  ( 14.2% of F)
    Basis function eval.    ....       0.104 sec  ( 20.9% of XC)
    Density eval.           ....       0.096 sec  ( 19.3% of XC)
    XC-Functional eval.     ....       0.103 sec  ( 20.8% of XC)
    XC-Potential eval.      ....       0.088 sec  ( 17.8% of XC)
Diagonalization             ....       0.001 sec  (  0.0%)
Density matrix formation    ....       0.000 sec  (  0.0%)
Population analysis         ....       0.095 sec  (  1.9%)
Initial guess               ....       0.003 sec  (  0.1%)
Orbital Transformation      ....       0.000 sec  (  0.0%)
Orbital Orthonormalization  ....       0.001 sec  (  0.0%)
DIIS solution               ....       0.000 sec  (  0.0%)
SOSCF solution              ....       0.001 sec  (  0.0%)
Grid generation             ....       0.718 sec  ( 14.7%)

Maximum memory used throughout the entire SCF-calculation: 44.5 MB

-------------------------   --------------------
FINAL SINGLE POINT ENERGY      -622.348344506442
-------------------------   --------------------

                                *** OPTIMIZATION RUN DONE ***

                            ***************************************
                            *     ORCA property calculations      *
                            ***************************************

                                    ---------------------
                                    Active property flags
                                    ---------------------
   (+) Dipole Moment


------------------------------------------------------------------------------
                       ORCA ELECTRIC PROPERTIES CALCULATION
------------------------------------------------------------------------------

Dipole Moment Calculation                       ... on
Quadrupole Moment Calculation                   ... off
Polarizability Calculation                      ... off
GBWName                                         ... NaCl_DFT.gbw
Electron density                                ... NaCl_DFT.scfp
SHARK General Contraction Test:  Segmented basis detected
   -> Pre-screening matrix found on disk - Trying to read with NShells=15
   -> Passing Pre-screening matrix on to SHARK ...ok
   -> Leaving CheckPreScreeningMatrix
----------------------
SHARK INTEGRAL PACKAGE
----------------------

Number of atoms                             ...      2
Number of basis functions                   ...     33
Number of shells                            ...     15
Maximum angular momentum                    ...      2
Integral batch strategy                     ... SHARK/LIBINT Hybrid
RI-J (if used) integral strategy            ... SPLIT-RIJ (Revised 2003 algorithm where possible)
Printlevel                                  ...      2
Contraction scheme used                     ... SEGMENTED contraction
Coulomb Range Separation                    ... NOT USED
Exchange Range Separation                   ... NOT USED
Finite Nucleus Model                        ... NOT USED
Auxiliary Coulomb fitting basis             ... AVAILABLE
   # of basis functions in Aux-J            ...    107
   # of shells in Aux-J                     ...     35
   Maximum angular momentum in Aux-J        ...      4
Auxiliary J/K fitting basis                 ... NOT available
Auxiliary Correlation fitting basis         ... NOT available
Auxiliary 'external' fitting basis          ... NOT available
Integral threshold                          ...     2.500000e-11
Primitive cut-off                           ...     2.500000e-12
Primitive pair pre-selection threshold      ...     2.500000e-12

The origin for moment calculation is the CENTER OF MASS  = ( 2.208546,  0.383146 -1.114388)

-------------
DIPOLE MOMENT
-------------
                                X             Y             Z
Electronic contribution:      6.90603       9.52174     -41.84331
Nuclear contribution   :      0.02608       0.03595      -0.15799
                        -----------------------------------------
Total Dipole Moment    :      6.93211       9.55769     -42.00130
                        -----------------------------------------
Magnitude (a.u.)       :     43.62926
Magnitude (Debye)      :    110.89677



--------------------
Rotational spectrum 
--------------------
 
Rotational constants in cm-1:     0.000000     0.033663     0.033663 
Rotational constants in MHz :     0.000000  1009.189629  1009.189629 

 Dipole components along the rotational axes: 
x,y,z [a.u.] :    43.629261     0.000024    -0.000015 
x,y,z [Debye]:   110.896769     0.000061    -0.000038 

 

Timings for individual modules:

Sum of individual times         ...      319.245 sec (=   5.321 min)
GTO integral calculation        ...       14.037 sec (=   0.234 min)   4.4 %
SCF iterations                  ...      232.519 sec (=   3.875 min)  72.8 %
SCF Gradient evaluation         ...       69.857 sec (=   1.164 min)  21.9 %
Geometry relaxation             ...        2.832 sec (=   0.047 min)   0.9 %
                             ****ORCA TERMINATED NORMALLY****
TOTAL RUN TIME: 0 days 0 hours 5 minutes 31 seconds 785 msec
