
                                 *****************
                                 * O   R   C   A *
                                 *****************

                                            #,                                       
                                            ###                                      
                                            ####                                     
                                            #####                                    
                                            ######                                   
                                           ########,                                 
                                     ,,################,,,,,                         
                               ,,#################################,,                 
                          ,,##########################################,,             
                       ,#########################################, ''#####,          
                    ,#############################################,,   '####,        
                  ,##################################################,,,,####,       
                ,###########''''           ''''###############################       
              ,#####''   ,,,,##########,,,,          '''####'''          '####       
            ,##' ,,,,###########################,,,                        '##       
           ' ,,###''''                  '''############,,,                           
         ,,##''                                '''############,,,,        ,,,,,,###''
      ,#''                                            '''#######################'''  
     '                                                          ''''####''''         
             ,#######,   #######,   ,#######,      ##                                
            ,#'     '#,  ##    ##  ,#'     '#,    #''#        ######   ,####,        
            ##       ##  ##   ,#'  ##            #'  '#       #        #'  '#        
            ##       ##  #######   ##           ,######,      #####,   #    #        
            '#,     ,#'  ##    ##  '#,     ,#' ,#      #,         ##   #,  ,#        
             '#######'   ##     ##  '#######'  #'      '#     #####' # '####'        



                  #######################################################
                  #                        -***-                        #
                  #          Department of theory and spectroscopy      #
                  #    Directorship and core code : Frank Neese         #
                  #        Max Planck Institute fuer Kohlenforschung    #
                  #                Kaiser Wilhelm Platz 1               #
                  #                 D-45470 Muelheim/Ruhr               #
                  #                      Germany                        #
                  #                                                     #
                  #                  All rights reserved                #
                  #                        -***-                        #
                  #######################################################


                         Program Version 5.0.4 -  RELEASE  -


 With contributions from (in alphabetic order):
   Daniel Aravena         : Magnetic Suceptibility
   Michael Atanasov       : Ab Initio Ligand Field Theory (pilot matlab implementation)
   Alexander A. Auer      : GIAO ZORA, VPT2 properties, NMR spectrum
   Ute Becker             : Parallelization
   Giovanni Bistoni       : ED, misc. LED, open-shell LED, HFLD
   Martin Brehm           : Molecular dynamics
   Dmytro Bykov           : SCF Hessian
   Vijay G. Chilkuri      : MRCI spin determinant printing, contributions to CSF-ICE
   Dipayan Datta          : RHF DLPNO-CCSD density
   Achintya Kumar Dutta   : EOM-CC, STEOM-CC
   Dmitry Ganyushin       : Spin-Orbit,Spin-Spin,Magnetic field MRCI
   Miquel Garcia          : C-PCM and meta-GGA Hessian, CC/C-PCM, Gaussian charge scheme
   Yang Guo               : DLPNO-NEVPT2, F12-NEVPT2, CIM, IAO-localization
   Andreas Hansen         : Spin unrestricted coupled pair/coupled cluster methods
   Benjamin Helmich-Paris : MC-RPA, TRAH-SCF, COSX integrals
   Lee Huntington         : MR-EOM, pCC
   Robert Izsak           : Overlap fitted RIJCOSX, COSX-SCS-MP3, EOM
   Marcus Kettner         : VPT2
   Christian Kollmar      : KDIIS, OOCD, Brueckner-CCSD(T), CCSD density, CASPT2, CASPT2-K
   Simone Kossmann        : Meta GGA functionals, TD-DFT gradient, OOMP2, MP2 Hessian
   Martin Krupicka        : Initial AUTO-CI
   Lucas Lang             : DCDCAS
   Marvin Lechner         : AUTO-CI (C++ implementation), FIC-MRCC
   Dagmar Lenk            : GEPOL surface, SMD
   Dimitrios Liakos       : Extrapolation schemes; Compound Job, initial MDCI parallelization
   Dimitrios Manganas     : Further ROCIS development; embedding schemes
   Dimitrios Pantazis     : SARC Basis sets
   Anastasios Papadopoulos: AUTO-CI, single reference methods and gradients
   Taras Petrenko         : DFT Hessian,TD-DFT gradient, ASA, ECA, R-Raman, ABS, FL, XAS/XES, NRVS
   Peter Pinski           : DLPNO-MP2, DLPNO-MP2 Gradient
   Christoph Reimann      : Effective Core Potentials
   Marius Retegan         : Local ZFS, SOC
   Christoph Riplinger    : Optimizer, TS searches, QM/MM, DLPNO-CCSD(T), (RO)-DLPNO pert. Triples
   Tobias Risthaus        : Range-separated hybrids, TD-DFT gradient, RPA, STAB
   Michael Roemelt        : Original ROCIS implementation
   Masaaki Saitow         : Open-shell DLPNO-CCSD energy and density
   Barbara Sandhoefer     : DKH picture change effects
   Avijit Sen             : IP-ROCIS
   Kantharuban Sivalingam : CASSCF convergence, NEVPT2, FIC-MRCI
   Bernardo de Souza      : ESD, SOC TD-DFT
   Georgi Stoychev        : AutoAux, RI-MP2 NMR, DLPNO-MP2 response
   Willem Van den Heuvel  : Paramagnetic NMR
   Boris Wezisla          : Elementary symmetry handling
   Frank Wennmohs         : Technical directorship


 We gratefully acknowledge several colleagues who have allowed us to
 interface, adapt or use parts of their codes:
   Stefan Grimme, W. Hujo, H. Kruse, P. Pracht,  : VdW corrections, initial TS optimization,
                  C. Bannwarth, S. Ehlert          DFT functionals, gCP, sTDA/sTD-DF
   Ed Valeev, F. Pavosevic, A. Kumar             : LibInt (2-el integral package), F12 methods
   Garnet Chan, S. Sharma, J. Yang, R. Olivares  : DMRG
   Ulf Ekstrom                                   : XCFun DFT Library
   Mihaly Kallay                                 : mrcc  (arbitrary order and MRCC methods)
   Jiri Pittner, Ondrej Demel                    : Mk-CCSD
   Frank Weinhold                                : gennbo (NPA and NBO analysis)
   Christopher J. Cramer and Donald G. Truhlar   : smd solvation model
   Lars Goerigk                                  : TD-DFT with DH, B97 family of functionals
   V. Asgeirsson, H. Jonsson                     : NEB implementation
   FAccTs GmbH                                   : IRC, NEB, NEB-TS, DLPNO-Multilevel, CI-OPT
                                                   MM, QMMM, 2- and 3-layer-ONIOM, Crystal-QMMM,
                                                   LR-CPCM, SF, NACMEs, symmetry and pop. for TD-DFT,
                                                   nearIR, NL-DFT gradient (VV10), updates on ESD,
                                                   ML-optimized integration grids
   S Lehtola, MJT Oliveira, MAL Marques          : LibXC Library
   Liviu Ungur et al                             : ANISO software


 Your calculation uses the libint2 library for the computation of 2-el integrals
 For citations please refer to: http://libint.valeyev.net

 Your ORCA version has been built with support for libXC version: 5.1.0
 For citations please refer to: https://tddft.org/programs/libxc/

 This ORCA versions uses:
   CBLAS   interface :  Fast vector & matrix operations
   LAPACKE interface :  Fast linear algebra routines
   SCALAPACK package :  Parallel linear algebra routines
   Shared memory     :  Shared parallel matrices
   BLAS/LAPACK       :  OpenBLAS 0.3.15  USE64BITINT DYNAMIC_ARCH NO_AFFINITY SkylakeX SINGLE_THREADED
        Core in use  :  SkylakeX
   Copyright (c) 2011-2014, The OpenBLAS Project


================================================================================

----- Orbital basis set information -----
Your calculation utilizes the basis: def2-SVP
   F. Weigend and R. Ahlrichs, Phys. Chem. Chem. Phys. 7, 3297 (2005).

----- AuxJ basis set information -----
Your calculation utilizes the auxiliary basis: def2/J
   F. Weigend, Phys. Chem. Chem. Phys. 8, 1057 (2006).

================================================================================
                                        WARNINGS
                       Please study these warnings very carefully!
================================================================================


WARNING: Geometry Optimization
  ===> : Switching off AutoStart
         For restart on a previous wavefunction, please use MOREAD

INFO   : the flag for use of the SHARK integral package has been found!

================================================================================
                                       INPUT FILE
================================================================================
NAME = FeSO4_DFT.inp
|  1> ## avogadro generated ORCA input file 
|  2> # Advanced Mode
|  3> # 
|  4> ! B3LYP OPT def2-SVP NormalPrint defgrid2 NormalSCF 
|  5> 
|  6> ! CPCM
|  7> %cpcm
|  8> epsilon 69.0
|  9> refrac 1.34
| 10> end
| 11> 
| 12> %scf
| 13> 	MaxIter 125
| 14> 	CNVDIIS 1
| 15> 	CNVSOSCF 1 
| 16> end
| 17> 
| 18> * xyz -2 1
| 19>    O        1.22699       -0.35236       -0.51172
| 20>    S        2.69438       -0.26533       -0.37923
| 21>    O        3.57892       -0.77816       -1.35021
| 22>    O        2.66737        1.16041        0.00143
| 23>    O        2.68771       -0.73374        1.02038
| 24>   Fe        1.26574        0.56298        1.18903
| 25> *
| 26> 
| 27> 
| 28>                          ****END OF INPUT****
================================================================================

                       *****************************
                       * Geometry Optimization Run *
                       *****************************

Geometry optimization settings:
Update method            Update   .... BFGS
Choice of coordinates    CoordSys .... Z-matrix Internals
Initial Hessian          InHess   .... Almoef's Model

Convergence Tolerances:
Energy Change            TolE     ....  5.0000e-06 Eh
Max. Gradient            TolMAXG  ....  3.0000e-04 Eh/bohr
RMS Gradient             TolRMSG  ....  1.0000e-04 Eh/bohr
Max. Displacement        TolMAXD  ....  4.0000e-03 bohr
RMS Displacement         TolRMSD  ....  2.0000e-03 bohr
Strict Convergence                ....  False
------------------------------------------------------------------------------
                        ORCA OPTIMIZATION COORDINATE SETUP
------------------------------------------------------------------------------

The optimization will be done in new redundant internal coordinates
Making redundant internal coordinates   ...  (new redundants) done
Evaluating the initial hessian          ...  (Almloef) done
Evaluating the coordinates              ...  done
Calculating the B-matrix                .... done
Calculating the G-matrix                .... done
Diagonalizing the G-matrix              .... done
The first mode is                       ....   35
The number of degrees of freedom        ....   12

    -----------------------------------------------------------------
                    Redundant Internal Coordinates


    -----------------------------------------------------------------
         Definition                    Initial Value    Approx d2E/dq
    -----------------------------------------------------------------
      1. B(S   1,O   0)                  1.4759         1.100403   
      2. B(O   2,S   1)                  1.4100         1.401760   
      3. B(O   3,S   1)                  1.4759         1.100396   
      4. B(O   4,S   1)                  1.4759         1.100404   
      5. B(Fe  5,S   1)                  2.2774         0.654397   
      6. B(Fe  5,O   3)                  1.9318         0.773713   
      7. B(Fe  5,O   0)                  1.9318         0.773701   
      8. B(Fe  5,O   4)                  1.9318         0.773683   
      9. A(S   1,O   0,Fe  5)           82.7088         0.593079   
     10. A(O   2,S   1,O   3)          122.7119         0.622726   
     11. A(O   3,S   1,Fe  5)           57.2875         0.601821   
     12. A(O   0,S   1,O   4)           93.5499         0.594273   
     13. A(O   3,S   1,O   4)           93.5498         0.594272   
     14. A(O   0,S   1,Fe  5)           57.2877         0.601822   
     15. A(O   0,S   1,O   3)           93.5500         0.594272   
     16. A(O   0,S   1,O   2)          122.7127         0.622727   
     17. A(O   4,S   1,Fe  5)           57.2879         0.601822   
     18. A(O   2,S   1,O   4)          122.7123         0.622727   
     19. A(S   1,O   3,Fe  5)           82.7089         0.593080   
     20. A(S   1,O   4,Fe  5)           82.7085         0.593076   
     21. A(S   1,Fe  5,O   3)           40.0036         0.600612   
     22. A(O   0,Fe  5,O   3)           67.6576         0.591890   
     23. A(O   0,Fe  5,S   1)           40.0036         0.600610   
     24. A(O   3,Fe  5,O   4)           67.6573         0.591887   
     25. A(S   1,Fe  5,O   4)           40.0035         0.600608   
     26. A(O   0,Fe  5,O   4)           67.6573         0.591885   
     27. D(O   2,S   1,O   0,Fe  5)   -179.9994         0.029679   
     28. D(O   4,S   1,O   0,Fe  5)     46.8925         0.029679   
     29. D(O   3,S   1,O   0,Fe  5)    -46.8919         0.029679   
     30. D(Fe  5,O   3,S   1,O   4)    -46.8925         0.029679   
     31. D(Fe  5,O   3,S   1,O   2)   -180.0000         0.029679   
     32. D(Fe  5,O   3,S   1,O   0)     46.8920         0.029679   
     33. D(Fe  5,O   4,S   1,O   3)     46.8923         0.029679   
     34. D(Fe  5,O   4,S   1,O   2)    179.9994         0.029679   
     35. D(Fe  5,O   4,S   1,O   0)    -46.8923         0.029679   
     36. D(O   3,Fe  5,S   1,O   0)   -120.0003         0.002258   
     37. D(O   0,Fe  5,S   1,O   4)   -119.9999         0.002258   
     38. D(O   0,Fe  5,S   1,O   3)    120.0003         0.002258   
     39. D(O   4,Fe  5,O   0,S   1)    -37.0060         0.004011   
     40. D(O   3,Fe  5,S   1,O   4)    119.9998         0.002258   
     41. D(O   0,Fe  5,O   4,S   1)     37.0060         0.004011   
     42. D(O   3,Fe  5,O   0,S   1)     37.0058         0.004011   
     43. D(O   4,Fe  5,O   3,S   1)     37.0060         0.004011   
     44. D(O   0,Fe  5,O   3,S   1)    -37.0057         0.004011   
     45. D(O   4,Fe  5,S   1,O   3)   -119.9998         0.002258   
     46. D(O   3,Fe  5,O   4,S   1)    -37.0061         0.004011   
     47. D(O   4,Fe  5,S   1,O   0)    119.9999         0.002258   
    -----------------------------------------------------------------

Number of atoms                         .... 6
Number of degrees of freedom            .... 47

         *************************************************************
         *                GEOMETRY OPTIMIZATION CYCLE   1            *
         *************************************************************
---------------------------------
CARTESIAN COORDINATES (ANGSTROEM)
---------------------------------
  O      1.226990   -0.352360   -0.511720
  S      2.694380   -0.265330   -0.379230
  O      3.578920   -0.778160   -1.350210
  O      2.667370    1.160410    0.001430
  O      2.687710   -0.733740    1.020380
  Fe     1.265740    0.562980    1.189030

----------------------------
CARTESIAN COORDINATES (A.U.)
----------------------------
  NO LB      ZA    FRAG     MASS         X           Y           Z
   0 O     8.0000    0    15.999    2.318675   -0.665864   -0.967011
   1 S    16.0000    0    32.060    5.091640   -0.501401   -0.716641
   2 O     8.0000    0    15.999    6.763179   -1.470509   -2.551527
   3 O     8.0000    0    15.999    5.040599    2.192857    0.002702
   4 O     8.0000    0    15.999    5.079036   -1.386568    1.928239
   5 Fe   26.0000    0    55.850    2.391902    1.063878    2.246941

--------------------------------
INTERNAL COORDINATES (ANGSTROEM)
--------------------------------
 O      0   0   0     0.000000000000     0.00000000     0.00000000
 S      1   0   0     1.475927245192     0.00000000     0.00000000
 O      2   1   0     1.410038219659   122.71265616     0.00000000
 O      2   1   3     1.475928901845    93.54995484   133.10749487
 O      2   1   3     1.475927020249    93.54994681   226.89192814
 Fe     4   2   1     1.931808225938    82.70887516    46.89203958

---------------------------
INTERNAL COORDINATES (A.U.)
---------------------------
 O      0   0   0     0.000000000000     0.00000000     0.00000000
 S      1   0   0     2.789098287006     0.00000000     0.00000000
 O      2   1   0     2.664586073518   122.71265616     0.00000000
 O      2   1   3     2.789101417625    93.54995484   133.10749487
 O      2   1   3     2.789097861924    93.54994681   226.89192814
 Fe     4   2   1     3.650588490278    82.70887516    46.89203958

---------------------
BASIS SET INFORMATION
---------------------
There are 3 groups of distinct atoms

 Group   1 Type O   : 7s4p1d contracted to 3s2p1d pattern {511/31/1}
 Group   2 Type S   : 10s7p1d contracted to 4s3p1d pattern {5311/511/1}
 Group   3 Type Fe  : 14s9p5d1f contracted to 5s3p2d1f pattern {63311/531/41/1}

Atom   0O    basis set group =>   1
Atom   1S    basis set group =>   2
Atom   2O    basis set group =>   1
Atom   3O    basis set group =>   1
Atom   4O    basis set group =>   1
Atom   5Fe   basis set group =>   3
---------------------------------
AUXILIARY/J BASIS SET INFORMATION
---------------------------------
There are 3 groups of distinct atoms

 Group   1 Type O   : 12s5p4d2f1g contracted to 6s4p3d1f1g pattern {711111/2111/211/2/1}
 Group   2 Type S   : 14s5p5d2f1g contracted to 8s4p3d1f1g pattern {71111111/2111/311/2/1}
 Group   3 Type Fe  : 19s5p5d3f3g contracted to 8s5p5d2f3g pattern {121111111/11111/11111/21/111}

Atom   0O    basis set group =>   1
Atom   1S    basis set group =>   2
Atom   2O    basis set group =>   1
Atom   3O    basis set group =>   1
Atom   4O    basis set group =>   1
Atom   5Fe   basis set group =>   3
------------------------------------------------------------------------------
                           ORCA GTO INTEGRAL CALCULATION
                           -- RI-GTO INTEGRALS CHOSEN --
------------------------------------------------------------------------------
------------------------------------------------------------------------------
                   ___                                                        
                  /   \      - P O W E R E D   B Y -                         
                 /     \                                                     
                 |  |  |   _    _      __       _____    __    __             
                 |  |  |  | |  | |    /  \     |  _  \  |  |  /  |          
                  \  \/   | |  | |   /    \    | | | |  |  | /  /          
                 / \  \   | |__| |  /  /\  \   | |_| |  |  |/  /          
                |  |  |   |  __  | /  /__\  \  |    /   |      \           
                |  |  |   | |  | | |   __   |  |    \   |  |\   \          
                \     /   | |  | | |  |  |  |  | |\  \  |  | \   \       
                 \___/    |_|  |_| |__|  |__|  |_| \__\ |__|  \__/        
                                                                              
                      - O R C A' S   B I G   F R I E N D -                    
                                      &                                       
                       - I N T E G R A L  F E E D E R -                       
                                                                              
 v1 FN, 2020, v2 2021                                                         
------------------------------------------------------------------------------


Reading SHARK input file FeSO4_DFT.SHARKINP.tmp ... SHARK General Contraction Test:  Segmented basis detected
   -> Pre-screening matrix *NOT* found on disk - recalculating with NShells=43
   -> Leaving CheckPreScreeningMatrix
ok
----------------------
SHARK INTEGRAL PACKAGE
----------------------

Number of atoms                             ...      6
Number of basis functions                   ...    105
Number of shells                            ...     43
Maximum angular momentum                    ...      3
Integral batch strategy                     ... SHARK/LIBINT Hybrid
RI-J (if used) integral strategy            ... SPLIT-RIJ (Revised 2003 algorithm where possible)
Printlevel                                  ...      2
Contraction scheme used                     ... SEGMENTED contraction
Coulomb Range Separation                    ... NOT USED
Exchange Range Separation                   ... NOT USED
Finite Nucleus Model                        ... NOT USED
Auxiliary Coulomb fitting basis             ... AVAILABLE
   # of basis functions in Aux-J            ...    336
   # of shells in Aux-J                     ...    100
   Maximum angular momentum in Aux-J        ...      4
Auxiliary J/K fitting basis                 ... NOT available
Auxiliary Correlation fitting basis         ... NOT available
Auxiliary 'external' fitting basis          ... NOT available
Integral threshold                          ...     2.500000e-11
Primitive cut-off                           ...     2.500000e-12
Primitive pair pre-selection threshold      ...     2.500000e-12

Calculating pre-screening integrals         ... done (  0.0 sec) Dimension = 43
Organizing shell pair data                  ... done (  0.0 sec)
Shell pair information
Total number of shell pairs                 ...       946
Shell pairs after pre-screening             ...       903
Total number of primitive shell pairs       ...      4675
Primitive shell pairs kept                  ...      3263
          la=0 lb=0:    206 shell pairs
          la=1 lb=0:    283 shell pairs
          la=1 lb=1:    103 shell pairs
          la=2 lb=0:    144 shell pairs
          la=2 lb=1:     97 shell pairs
          la=2 lb=2:     28 shell pairs
          la=3 lb=0:     20 shell pairs
          la=3 lb=1:     14 shell pairs
          la=3 lb=2:      7 shell pairs
          la=3 lb=3:      1 shell pairs

Calculating one electron integrals          ... done (  0.0 sec)
Calculating RI/J V-Matrix + Cholesky decomp.... done (  0.0 sec)
Calculating Nuclear repulsion               ... done (  0.0 sec) ENN=    570.507058509938 Eh

SHARK setup successfully completed in   0.6 seconds

Maximum memory used throughout the entire GTOINT-calculation: 20.2 MB
-------------------------------------------------------------------------------
                                 ORCA SCF
-------------------------------------------------------------------------------

------------
SCF SETTINGS
------------
Hamiltonian:
 Density Functional     Method          .... DFT(GTOs)
 Exchange Functional    Exchange        .... B88
   X-Alpha parameter    XAlpha          ....  0.666667
   Becke's b parameter  XBeta           ....  0.004200
 Correlation Functional Correlation     .... LYP
 LDA part of GGA corr.  LDAOpt          .... VWN-5
 Gradients option       PostSCFGGA      .... off
 Hybrid DFT is turned on
   Fraction HF Exchange ScalHFX         ....  0.200000
   Scaling of DF-GGA-X  ScalDFX         ....  0.720000
   Scaling of DF-GGA-C  ScalDFC         ....  0.810000
   Scaling of DF-LDA-C  ScalLDAC        ....  1.000000
   Perturbative correction              ....  0.000000
   Density functional embedding theory  .... OFF
   NL short-range parameter             ....  4.800000
 RI-approximation to the Coulomb term is turned on
   Number of AuxJ basis functions       .... 336
   RIJ-COSX (HFX calculated with COS-X)).... on


General Settings:
 Integral files         IntName         .... FeSO4_DFT
 Hartree-Fock type      HFTyp           .... RHF
 Total Charge           Charge          ....   -2
 Multiplicity           Mult            ....    1
 Number of Electrons    NEL             ....   76
 Basis Dimension        Dim             ....  105
 Nuclear Repulsion      ENuc            ....    570.5070585099 Eh

Convergence Acceleration:
 DIIS                   CNVDIIS         .... on
   Start iteration      DIISMaxIt       ....    12
   Startup error        DIISStart       ....  0.200000
   # of expansion vecs  DIISMaxEq       ....     5
   Bias factor          DIISBfac        ....   1.050
   Max. coefficient     DIISMaxC        ....  10.000
 Trust-Rad. Augm. Hess. CNVTRAH         .... auto
   Auto Start mean grad. ratio tolernc. ....  1.125000
   Auto Start start iteration           ....    20
   Auto Start num. interpolation iter.  ....    10
   Max. Number of Micro iterations      ....    16
   Max. Number of Macro iterations      .... Maxiter - #DIIS iter
   Number of Davidson start vectors     ....     2
   Converg. threshold I  (grad. norm)   ....   1.000e-05
   Converg. threshold II (energy diff.) ....   1.000e-08
   Grad. Scal. Fac. for Micro threshold ....   0.100
   Minimum threshold for Micro iter.    ....   0.010
   NR start threshold (gradient norm)   ....   0.001
   Initial trust radius                 ....   0.400
   Minimum AH scaling param. (alpha)    ....   1.000
   Maximum AH scaling param. (alpha)    .... 1000.000
   Orbital update algorithm             .... Taylor
   White noise on init. David. guess    .... on
   Maximum white noise                  ....   0.010
   Quad. conv. algorithm                .... NR
 SOSCF                  CNVSOSCF        .... on
   Start iteration      SOSCFMaxIt      ....   150
   Startup grad/error   SOSCFStart      ....  0.003300
 Level Shifting         CNVShift        .... on
   Level shift para.    LevelShift      ....    0.2500
   Turn off err/grad.   ShiftErr        ....    0.0010
 Zerner damping         CNVZerner       .... off
 Static damping         CNVDamp         .... on
   Fraction old density DampFac         ....    0.7000
   Max. Damping (<1)    DampMax         ....    0.9800
   Min. Damping (>=0)   DampMin         ....    0.0000
   Turn off err/grad.   DampErr         ....    0.1000
 Fernandez-Rico         CNVRico         .... off

SCF Procedure:
 Maximum # iterations   MaxIter         ....   125
 SCF integral mode      SCFMode         .... Direct
   Integral package                     .... SHARK and LIBINT hybrid scheme
 Reset frequency        DirectResetFreq ....    20
 Integral Threshold     Thresh          ....  2.500e-11 Eh
 Primitive CutOff       TCut            ....  2.500e-12 Eh

Convergence Tolerance:
 Convergence Check Mode ConvCheckMode   .... Total+1el-Energy
 Convergence forced     ConvForced      .... 0
 Energy Change          TolE            ....  1.000e-08 Eh
 1-El. energy change                    ....  1.000e-05 Eh
 Orbital Gradient       TolG            ....  1.000e-05
 Orbital Rotation angle TolX            ....  1.000e-05
 DIIS Error             TolErr          ....  5.000e-07


Diagonalization of the overlap matrix:
Smallest eigenvalue                        ... 2.389e-03
Time for diagonalization                   ...    0.003 sec
Threshold for overlap eigenvalues          ... 1.000e-08
Number of eigenvalues below threshold      ... 0
Time for construction of square roots      ...    0.004 sec
Total time needed                          ...    0.007 sec

SHARK General Contraction Test:  Segmented basis detected
   -> Pre-screening matrix found on disk - Trying to read with NShells=43
   -> Passing Pre-screening matrix on to SHARK ...ok
   -> Leaving CheckPreScreeningMatrix
----------------------
SHARK INTEGRAL PACKAGE
----------------------

Number of atoms                             ...      6
Number of basis functions                   ...    105
Number of shells                            ...     43
Maximum angular momentum                    ...      3
Integral batch strategy                     ... SHARK/LIBINT Hybrid
RI-J (if used) integral strategy            ... SPLIT-RIJ (Revised 2003 algorithm where possible)
Printlevel                                  ...      2
Contraction scheme used                     ... SEGMENTED contraction
Coulomb Range Separation                    ... NOT USED
Exchange Range Separation                   ... NOT USED
Finite Nucleus Model                        ... NOT USED
Auxiliary Coulomb fitting basis             ... AVAILABLE
   # of basis functions in Aux-J            ...    336
   # of shells in Aux-J                     ...    100
   Maximum angular momentum in Aux-J        ...      4
Auxiliary J/K fitting basis                 ... NOT available
Auxiliary Correlation fitting basis         ... NOT available
Auxiliary 'external' fitting basis          ... NOT available
Integral threshold                          ...     2.500000e-11
Primitive cut-off                           ...     2.500000e-12
Primitive pair pre-selection threshold      ...     2.500000e-12

Time for model grid setup =    0.084 sec

------------------------------
INITIAL GUESS: MODEL POTENTIAL
------------------------------
Loading Hartree-Fock densities                     ... done
Calculating cut-offs                               ... done
Initializing the effective Hamiltonian             ... done
Setting up the integral package (SHARK)            ... done
Starting the Coulomb interaction                   ...     -> Generating integrals - 
    -> L=0 0 :     0.007 sec done=     17786 skipped=        74 prim-skipped=         0
    -> L=1 0 :     0.011 sec done=     24288 skipped=       175 prim-skipped=         0
    -> L=1 1 :     0.006 sec done=      8941 skipped=        15 prim-skipped=         0
    -> L=2 0 :     0.006 sec done=     12254 skipped=       122 prim-skipped=         0
    -> L=2 1 :     0.008 sec done=      8382 skipped=        28 prim-skipped=         0
    -> L=2 2 :     0.005 sec done=      2395 skipped=        17 prim-skipped=         0
    -> L=3 0 :     0.020 sec done=      1643 skipped=        35 prim-skipped=         0
    -> L=3 1 :     0.017 sec done=      1151 skipped=        33 prim-skipped=         0
    -> L=3 2 :     0.021 sec done=       529 skipped=        43 prim-skipped=         0
    -> L=3 3 :     0.034 sec done=        87 skipped=         0 prim-skipped=         0
done (   0.1 sec)
Reading the grid                                   ... done
Mapping shells                                     ... done
Starting the XC term evaluation                    ... done (   0.1 sec)
  promolecular density results
     # of electrons  =     73.999595373
     EX              =   -112.453674356
     EC              =     -3.085330753
     EX+EC           =   -115.539005108
Transforming the Hamiltonian                       ... done (   0.0 sec)
Diagonalizing the Hamiltonian                      ... done (   0.0 sec)
Back transforming the eigenvectors                 ... done (   0.0 sec)
Now organizing SCF variables                       ... done
                      ------------------
                      INITIAL GUESS DONE (   0.3 sec)
                      ------------------
-------------------
DFT GRID GENERATION
-------------------

General Integration Accuracy     IntAcc      ... 4.388
Radial Grid Type                 RadialGrid  ... OptM3 with GC (2021)
Angular Grid (max. ang.)         AngularGrid ... 4 (Lebedev-302)
Angular grid pruning method      GridPruning ... 4 (adaptive)
Weight generation scheme         WeightScheme... Becke
Basis function cutoff            BFCut       ... 1.0000e-11
Integration weight cutoff        WCut        ... 1.0000e-14
Angular grids for H and He will be reduced by one unit
Partially contracted basis set               ... off
Rotationally invariant grid construction     ... off

Total number of grid points                  ...    42952
Total number of batches                      ...      675
Average number of points per batch           ...       63
Average number of grid points per atom       ...     7159
Time for grid setup =    0.344 sec

--------------------
COSX GRID GENERATION
--------------------

GRIDX 1
-------
General Integration Accuracy     IntAcc      ... 3.816
Radial Grid Type                 RadialGrid  ... OptM3 with GC (2021)
Angular Grid (max. ang.)         AngularGrid ... 1 (Lebedev-50)
Angular grid pruning method      GridPruning ... 4 (adaptive)
Weight generation scheme         WeightScheme... Becke
Basis function cutoff            BFCut       ... 1.0000e-11
Integration weight cutoff        WCut        ... 1.0000e-14
Angular grids for H and He will be reduced by one unit
Partially contracted basis set               ... on
Rotationally invariant grid construction     ... off

Total number of grid points                  ...     5132
Total number of batches                      ...       84
Average number of points per batch           ...       61
Average number of grid points per atom       ...      855
UseSFitting                                  ... on

GRIDX 2
-------
General Integration Accuracy     IntAcc      ... 4.020
Radial Grid Type                 RadialGrid  ... OptM3 with GC (2021)
Angular Grid (max. ang.)         AngularGrid ... 2 (Lebedev-110)
Angular grid pruning method      GridPruning ... 4 (adaptive)
Weight generation scheme         WeightScheme... Becke
Basis function cutoff            BFCut       ... 1.0000e-11
Integration weight cutoff        WCut        ... 1.0000e-14
Angular grids for H and He will be reduced by one unit
Partially contracted basis set               ... on
Rotationally invariant grid construction     ... off

Total number of grid points                  ...    12064
Total number of batches                      ...      192
Average number of points per batch           ...       62
Average number of grid points per atom       ...     2011
UseSFitting                                  ... on

GRIDX 3
-------
General Integration Accuracy     IntAcc      ... 4.338
Radial Grid Type                 RadialGrid  ... OptM3 with GC (2021)
Angular Grid (max. ang.)         AngularGrid ... 3 (Lebedev-194)
Angular grid pruning method      GridPruning ... 4 (adaptive)
Weight generation scheme         WeightScheme... Becke
Basis function cutoff            BFCut       ... 1.0000e-11
Integration weight cutoff        WCut        ... 1.0000e-14
Angular grids for H and He will be reduced by one unit
Partially contracted basis set               ... on
Rotationally invariant grid construction     ... off

Total number of grid points                  ...    27605
Total number of batches                      ...      435
Average number of points per batch           ...       63
Average number of grid points per atom       ...     4601
UseSFitting                                  ... on

Time for X-Grid setup             =    0.325 sec


--------------------
CPCM SOLVATION MODEL
--------------------
CPCM parameters:
  Epsilon                                         ...      69.0000
  Refrac                                          ...       1.3400
  Rsolv                                           ...       1.3000
  Surface type                                    ... GAUSSIAN VDW
  Epsilon function type                           ...         CPCM
Radii:
 Radius for O  used is    3.4469 Bohr (=   1.8240 Ang.)
 Radius for S  used is    4.0818 Bohr (=   2.1600 Ang.)
 Radius for Fe used is    4.5353 Bohr (=   2.4000 Ang.)
Calculating surface                               ...        done! (  0.0s)
GEPOL surface points                              ...          392
GEPOL Volume                                      ...     755.1628
GEPOL Surface-area                                ...     436.5114
Calculating surface distance matrix               ...        done! (  0.0s)
Performing Cholesky decomposition & store         ...        done! (  0.0s)
Overall time for CPCM initialization              ...                 0.0s
--------------
SCF ITERATIONS
--------------
               ***  Starting incremental Fock matrix formation  ***
==>> SHARK/AuxDens: NDens=1 Thresh =     2.500000e-11 TCut=    2.500000e-12 Lmax=3 LmaxAux=4
    -> Making Hermite density - ok     0.002 sec
    -> Making Aux-basis density - (lmax=3)
    -> L=0 0:    0.007 sec done=     20487 ( 99.5%) skipped=       113 
    -> L=1 0:    0.014 sec done=     28106 ( 99.3%) skipped=       193 
    -> L=1 1:    0.009 sec done=     10300 (100.0%) skipped=         0 
    -> L=2 0:    0.008 sec done=     13582 ( 94.3%) skipped=       818 
    -> L=2 1:    0.011 sec done=      9596 ( 98.9%) skipped=       104 
    -> L=2 2:    0.005 sec done=      2700 ( 96.4%) skipped=       100 
    -> L=3 0:    0.050 sec done=      1800 ( 90.0%) skipped=       200 
    -> L=3 1:    0.108 sec done=      1300 ( 92.9%) skipped=        99 
    -> L=3 2:    0.079 sec done=       600 ( 85.8%) skipped=        99 
    -> L=3 3:    0.048 sec done=       100 (100.0%) skipped=         0 
    -> Aux basis density formed in    0.3 sec
    -> Solving linear equations - ok (   0.0 sec)
        Auxbasis Hermite Density:
        P|s>                     ...  0.000
        P|p>                     ...  0.000
        P|d>                     ...  0.000
        P|f>                     ...  0.000
        P|g>                     ...  0.000
        Building the Coulomb matrix: 
        J|ss>                          ... done (  0.0 sec) ndone=   133165 nskipped1=       82 nskipped2=     2947
        J|ps>                          ... done (  0.0 sec) ndone=   166720 nskipped1=      953 nskipped2=     9127
        J|pp>                          ... done (  0.0 sec) ndone=    67599 nskipped1=        3 nskipped2=     1918
        J|ds>                          ... done (  0.0 sec) ndone=    60911 nskipped1=     1030 nskipped2=     4566
        J|dp>                          ... done (  0.0 sec) ndone=    42468 nskipped1=       76 nskipped2=      573
        J|dd>                          ... done (  0.0 sec) ndone=     9024 nskipped1=       75 nskipped2=       48
        J|fs>                          ... done (  0.1 sec) ndone=     6094 nskipped1=      459 nskipped2=      772
        J|fp>                          ... done (  0.0 sec) ndone=     4344 nskipped1=       87 nskipped2=      292
        J|fd>                          ... done (  0.1 sec) ndone=     1422 nskipped1=       88 nskipped2=       53
        J|ff>                          ... done (  0.0 sec) ndone=      158 nskipped1=        0 nskipped2=        0
        Coulomb matrix built in   0.2 sec

        Total time for Split-RI-J                ...    0.587 sec
          (0) Prelude                            ...    0.000 sec
          (1) Hermite density                    ...    0.000 sec
          (2) Aux basis density                  ...    0.000 sec (inner=  0.0)
          (3) Linear equation solution           ...    0.000 sec
          (4) J-Matrix construction              ...    0.244 sec (inner=  0.2)
        ---------------------------------------------------------

                         ----------------------------
                         !        ITERATION     0   !
                         ----------------------------
   Total Energy        :   -1960.858743832755 Eh
   Energy Change       :   -1960.858743832755 Eh
   MAX-DP              :       1.824516129781
   RMS-DP              :       0.041047922631
   Actual Damping      :       0.7000
   Actual Level Shift  :       0.2500 Eh
   Int. Num. El.       :    75.99991473 (UP=   37.99995736 DN=   37.99995736)
   Exchange            :   -92.00738120
   Correlation         :    -3.72582169

==>> SHARK/AuxDens: NDens=1 Thresh =     2.500000e-11 TCut=    2.500000e-12 Lmax=3 LmaxAux=4
    -> Making Hermite density - ok     0.002 sec
    -> Making Aux-basis density - (lmax=3)
    -> L=0 0:    0.007 sec done=     20596 (100.0%) skipped=         4 
    -> L=1 0:    0.014 sec done=     27958 ( 98.8%) skipped=       341 
    -> L=1 1:    0.010 sec done=     10300 (100.0%) skipped=         0 
    -> L=2 0:    0.009 sec done=     13519 ( 93.9%) skipped=       881 
    -> L=2 1:    0.012 sec done=      9595 ( 98.9%) skipped=       105 
    -> L=2 2:    0.005 sec done=      2700 ( 96.4%) skipped=       100 
    -> L=3 0:    0.002 sec done=      1799 ( 90.0%) skipped=       201 
    -> L=3 1:    0.003 sec done=      1299 ( 92.9%) skipped=       100 
    -> L=3 2:    0.002 sec done=       600 ( 85.8%) skipped=        99 
    -> L=3 3:    0.000 sec done=       100 (100.0%) skipped=         0 
    -> Aux basis density formed in    0.1 sec
    -> Solving linear equations - ok (   0.0 sec)
        Auxbasis Hermite Density:
        P|s>                     ...  0.000
        P|p>                     ...  0.000
        P|d>                     ...  0.000
        P|f>                     ...  0.000
        P|g>                     ...  0.000
        Building the Coulomb matrix: 
        J|ss>                          ... done (  0.0 sec) ndone=   133035 nskipped1=      104 nskipped2=     2825
        J|ps>                          ... done (  0.0 sec) ndone=   166028 nskipped1=     1618 nskipped2=     7972
        J|pp>                          ... done (  0.0 sec) ndone=    67592 nskipped1=        6 nskipped2=     1904
        J|ds>                          ... done (  0.0 sec) ndone=    60290 nskipped1=     1747 nskipped2=     3132
        J|dp>                          ... done (  0.0 sec) ndone=    42456 nskipped1=       94 nskipped2=      526
        J|dd>                          ... done (  0.0 sec) ndone=     9013 nskipped1=       93 nskipped2=        0
        J|fs>                          ... done (  0.0 sec) ndone=     6053 nskipped1=      557 nskipped2=      479
        J|fp>                          ... done (  0.0 sec) ndone=     4341 nskipped1=       99 nskipped2=      242
        J|fd>                          ... done (  0.0 sec) ndone=     1422 nskipped1=       99 nskipped2=        1
        J|ff>                          ... done (  0.0 sec) ndone=      158 nskipped1=        0 nskipped2=        0
        Coulomb matrix built in   0.0 sec

        Total time for Split-RI-J                ...    0.117 sec
          (0) Prelude                            ...    0.000 sec
          (1) Hermite density                    ...    0.000 sec
          (2) Aux basis density                  ...    0.000 sec (inner=  0.0)
          (3) Linear equation solution           ...    0.000 sec
          (4) J-Matrix construction              ...    0.048 sec (inner=  0.0)
        ---------------------------------------------------------

                         ----------------------------
                         !        ITERATION     1   !
                         ----------------------------
   Total Energy        :   -1960.856126118773 Eh
   Energy Change       :       0.002617713982 Eh
   MAX-DP              :       0.454322777818
   RMS-DP              :       0.012497279664
   Actual Damping      :       0.7000
   Actual Level Shift  :       0.2500 Eh
   Int. Num. El.       :    75.99325814 (UP=   37.99662907 DN=   37.99662907)
   Exchange            :   -90.40030757
   Correlation         :    -3.67835358

==>> SHARK/AuxDens: NDens=1 Thresh =     2.500000e-11 TCut=    2.500000e-12 Lmax=3 LmaxAux=4
    -> Making Hermite density - ok     0.003 sec
    -> Making Aux-basis density - (lmax=3)
    -> L=0 0:    0.007 sec done=     20475 ( 99.4%) skipped=       125 
    -> L=1 0:    0.015 sec done=     27510 ( 97.2%) skipped=       789 
    -> L=1 1:    0.010 sec done=     10300 (100.0%) skipped=         0 
    -> L=2 0:    0.010 sec done=     13471 ( 93.5%) skipped=       929 
    -> L=2 1:    0.014 sec done=      9595 ( 98.9%) skipped=       105 
    -> L=2 2:    0.006 sec done=      2700 ( 96.4%) skipped=       100 
    -> L=3 0:    0.002 sec done=      1800 ( 90.0%) skipped=       200 
    -> L=3 1:    0.003 sec done=      1300 ( 92.9%) skipped=        99 
    -> L=3 2:    0.002 sec done=       600 ( 85.8%) skipped=        99 
    -> L=3 3:    0.000 sec done=       100 (100.0%) skipped=         0 
    -> Aux basis density formed in    0.1 sec
    -> Solving linear equations - ok (   0.0 sec)
        Auxbasis Hermite Density:
        P|s>                     ...  0.000
        P|p>                     ...  0.000
        P|d>                     ...  0.000
        P|f>                     ...  0.000
        P|g>                     ...  0.000
        Building the Coulomb matrix: 
        J|ss>                          ... done (  0.0 sec) ndone=   132790 nskipped1=      218 nskipped2=     2734
        J|ps>                          ... done (  0.0 sec) ndone=   165645 nskipped1=     2080 nskipped2=     7640
        J|pp>                          ... done (  0.0 sec) ndone=    67599 nskipped1=        3 nskipped2=     1918
        J|ds>                          ... done (  0.0 sec) ndone=    59944 nskipped1=     2284 nskipped2=     2794
        J|dp>                          ... done (  0.0 sec) ndone=    42453 nskipped1=       97 nskipped2=      526
        J|dd>                          ... done (  0.0 sec) ndone=     9009 nskipped1=       97 nskipped2=        0
        J|fs>                          ... done (  0.0 sec) ndone=     6043 nskipped1=      585 nskipped2=      450
        J|fp>                          ... done (  0.0 sec) ndone=     4341 nskipped1=       99 nskipped2=      242
        J|fd>                          ... done (  0.0 sec) ndone=     1422 nskipped1=      100 nskipped2=        0
        J|ff>                          ... done (  0.0 sec) ndone=      158 nskipped1=        0 nskipped2=        0
        Coulomb matrix built in   0.1 sec

        Total time for Split-RI-J                ...    0.128 sec
          (0) Prelude                            ...    0.000 sec
          (1) Hermite density                    ...    0.000 sec
          (2) Aux basis density                  ...    0.000 sec (inner=  0.0)
          (3) Linear equation solution           ...    0.000 sec
          (4) J-Matrix construction              ...    0.054 sec (inner=  0.1)
        ---------------------------------------------------------

                         ----------------------------
                         !        ITERATION     2   !
                         ----------------------------
   Total Energy        :   -1961.095916906382 Eh
   Energy Change       :      -0.239790787609 Eh
   MAX-DP              :       0.335387058997
   RMS-DP              :       0.007894027899
   Actual Damping      :       0.7000
   Actual Level Shift  :       0.2500 Eh
   Int. Num. El.       :    75.99202631 (UP=   37.99601316 DN=   37.99601316)
   Exchange            :   -90.41332140
   Correlation         :    -3.67268245

==>> SHARK/AuxDens: NDens=1 Thresh =     2.500000e-11 TCut=    2.500000e-12 Lmax=3 LmaxAux=4
    -> Making Hermite density - ok     0.002 sec
    -> Making Aux-basis density - (lmax=3)
    -> L=0 0:    0.007 sec done=     19826 ( 96.2%) skipped=       774 
    -> L=1 0:    0.014 sec done=     27519 ( 97.2%) skipped=       780 
    -> L=1 1:    0.010 sec done=     10300 (100.0%) skipped=         0 
    -> L=2 0:    0.009 sec done=     13396 ( 93.0%) skipped=      1004 
    -> L=2 1:    0.012 sec done=      9517 ( 98.1%) skipped=       183 
    -> L=2 2:    0.005 sec done=      2700 ( 96.4%) skipped=       100 
    -> L=3 0:    0.002 sec done=      1785 ( 89.2%) skipped=       215 
    -> L=3 1:    0.003 sec done=      1295 ( 92.6%) skipped=       104 
    -> L=3 2:    0.002 sec done=       600 ( 85.8%) skipped=        99 
    -> L=3 3:    0.000 sec done=       100 (100.0%) skipped=         0 
    -> Aux basis density formed in    0.1 sec
    -> Solving linear equations - ok (   0.0 sec)
        Auxbasis Hermite Density:
        P|s>                     ...  0.000
        P|p>                     ...  0.000
        P|d>                     ...  0.000
        P|f>                     ...  0.000
        P|g>                     ...  0.000
        Building the Coulomb matrix: 
        J|ss>                          ... done (  0.0 sec) ndone=   132583 nskipped1=      476 nskipped2=     2777
        J|ps>                          ... done (  0.0 sec) ndone=   165205 nskipped1=     2680 nskipped2=     7390
        J|pp>                          ... done (  0.0 sec) ndone=    67589 nskipped1=       15 nskipped2=     1913
        J|ds>                          ... done (  0.0 sec) ndone=    59553 nskipped1=     2988 nskipped2=     2408
        J|dp>                          ... done (  0.0 sec) ndone=    42450 nskipped1=      100 nskipped2=      526
        J|dd>                          ... done (  0.0 sec) ndone=     9007 nskipped1=       99 nskipped2=        0
        J|fs>                          ... done (  0.0 sec) ndone=     6035 nskipped1=      593 nskipped2=      450
        J|fp>                          ... done (  0.0 sec) ndone=     4340 nskipped1=      100 nskipped2=      242
        J|fd>                          ... done (  0.0 sec) ndone=     1422 nskipped1=      100 nskipped2=        0
        J|ff>                          ... done (  0.0 sec) ndone=      158 nskipped1=        0 nskipped2=        0
        Coulomb matrix built in   0.0 sec

        Total time for Split-RI-J                ...    0.119 sec
          (0) Prelude                            ...    0.000 sec
          (1) Hermite density                    ...    0.000 sec
          (2) Aux basis density                  ...    0.000 sec (inner=  0.0)
          (3) Linear equation solution           ...    0.000 sec
          (4) J-Matrix construction              ...    0.049 sec (inner=  0.0)
        ---------------------------------------------------------
                               ***Turning on DIIS***

                         ----------------------------
                         !        ITERATION     3   !
                         ----------------------------
   Total Energy        :   -1961.364413309272 Eh
   Energy Change       :      -0.268496402890 Eh
   MAX-DP              :       0.873783001264
   RMS-DP              :       0.019295050791
   Actual Damping      :       0.0000
   Actual Level Shift  :       0.2500 Eh
   Int. Num. El.       :    75.99102871 (UP=   37.99551436 DN=   37.99551436)
   Exchange            :   -90.05494243
   Correlation         :    -3.66122886
   DIIS-Error          :       0.070029757163

==>> SHARK/AuxDens: NDens=1 Thresh =     2.500000e-11 TCut=    2.500000e-12 Lmax=3 LmaxAux=4
    -> Making Hermite density - ok     0.002 sec
    -> Making Aux-basis density - (lmax=3)
    -> L=0 0:    0.006 sec done=     20089 ( 97.5%) skipped=       511 
    -> L=1 0:    0.012 sec done=     27600 ( 97.5%) skipped=       699 
    -> L=1 1:    0.010 sec done=     10300 (100.0%) skipped=         0 
    -> L=2 0:    0.009 sec done=     13503 ( 93.8%) skipped=       897 
    -> L=2 1:    0.012 sec done=      9569 ( 98.6%) skipped=       131 
    -> L=2 2:    0.005 sec done=      2700 ( 96.4%) skipped=       100 
    -> L=3 0:    0.002 sec done=      1793 ( 89.7%) skipped=       207 
    -> L=3 1:    0.003 sec done=      1300 ( 92.9%) skipped=        99 
    -> L=3 2:    0.001 sec done=       600 ( 85.8%) skipped=        99 
    -> L=3 3:    0.000 sec done=       100 (100.0%) skipped=         0 
    -> Aux basis density formed in    0.1 sec
    -> Solving linear equations - ok (   0.0 sec)
        Auxbasis Hermite Density:
        P|s>                     ...  0.000
        P|p>                     ...  0.000
        P|d>                     ...  0.000
        P|f>                     ...  0.000
        P|g>                     ...  0.000
        Building the Coulomb matrix: 
        J|ss>                          ... done (  0.0 sec) ndone=   132942 nskipped1=      150 nskipped2=     2804
        J|ps>                          ... done (  0.0 sec) ndone=   165769 nskipped1=     1902 nskipped2=     7723
        J|pp>                          ... done (  0.0 sec) ndone=    67592 nskipped1=        6 nskipped2=     1904
        J|ds>                          ... done (  0.0 sec) ndone=    60009 nskipped1=     2210 nskipped2=     2855
        J|dp>                          ... done (  0.0 sec) ndone=    42444 nskipped1=      100 nskipped2=      526
        J|dd>                          ... done (  0.0 sec) ndone=     9007 nskipped1=       99 nskipped2=        0
        J|fs>                          ... done (  0.0 sec) ndone=     6041 nskipped1=      589 nskipped2=      459
        J|fp>                          ... done (  0.0 sec) ndone=     4340 nskipped1=      100 nskipped2=      242
        J|fd>                          ... done (  0.0 sec) ndone=     1422 nskipped1=      100 nskipped2=        0
        J|ff>                          ... done (  0.0 sec) ndone=      158 nskipped1=        0 nskipped2=        0
        Coulomb matrix built in   0.0 sec

        Total time for Split-RI-J                ...    0.114 sec
          (0) Prelude                            ...    0.000 sec
          (1) Hermite density                    ...    0.000 sec
          (2) Aux basis density                  ...    0.000 sec (inner=  0.0)
          (3) Linear equation solution           ...    0.000 sec
          (4) J-Matrix construction              ...    0.048 sec (inner=  0.0)
        ---------------------------------------------------------

                         ----------------------------
                         !        ITERATION     4   !
                         ----------------------------
   Total Energy        :   -1961.849097245286 Eh
   Energy Change       :      -0.484683936013 Eh
   MAX-DP              :       0.096891877958
   RMS-DP              :       0.001771091590
   Actual Damping      :       0.7000
   Actual Level Shift  :       0.2500 Eh
   Int. Num. El.       :    75.98974843 (UP=   37.99487421 DN=   37.99487421)
   Exchange            :   -89.59247731
   Correlation         :    -3.64223686
   DIIS-Error          :       0.369951976800
   DIIS coefficients:
      0.81742   0.18258

==>> SHARK/AuxDens: NDens=1 Thresh =     2.500000e-11 TCut=    2.500000e-12 Lmax=3 LmaxAux=4
    -> Making Hermite density - ok     0.002 sec
    -> Making Aux-basis density - (lmax=3)
    -> L=0 0:    0.006 sec done=     19867 ( 96.4%) skipped=       733 
    -> L=1 0:    0.014 sec done=     27378 ( 96.7%) skipped=       921 
    -> L=1 1:    0.010 sec done=     10299 (100.0%) skipped=         1 
    -> L=2 0:    0.009 sec done=     12955 ( 90.0%) skipped=      1445 
    -> L=2 1:    0.012 sec done=      9503 ( 98.0%) skipped=       197 
    -> L=2 2:    0.005 sec done=      2700 ( 96.4%) skipped=       100 
    -> L=3 0:    0.002 sec done=      1625 ( 81.2%) skipped=       375 
    -> L=3 1:    0.002 sec done=      1221 ( 87.3%) skipped=       178 
    -> L=3 2:    0.001 sec done=       600 ( 85.8%) skipped=        99 
    -> L=3 3:    0.000 sec done=       100 (100.0%) skipped=         0 
    -> Aux basis density formed in    0.1 sec
    -> Solving linear equations - ok (   0.0 sec)
        Auxbasis Hermite Density:
        P|s>                     ...  0.000
        P|p>                     ...  0.000
        P|d>                     ...  0.000
        P|f>                     ...  0.000
        P|g>                     ...  0.000
        Building the Coulomb matrix: 
        J|ss>                          ... done (  0.0 sec) ndone=   130228 nskipped1=     2222 nskipped2=     2284
        J|ps>                          ... done (  0.0 sec) ndone=   164489 nskipped1=     3530 nskipped2=     6797
        J|pp>                          ... done (  0.0 sec) ndone=    67466 nskipped1=      129 nskipped2=     1826
        J|ds>                          ... done (  0.0 sec) ndone=    59166 nskipped1=     3534 nskipped2=     1825
        J|dp>                          ... done (  0.0 sec) ndone=    42388 nskipped1=      133 nskipped2=      526
        J|dd>                          ... done (  0.0 sec) ndone=     9006 nskipped1=      100 nskipped2=        0
        J|fs>                          ... done (  0.0 sec) ndone=     6033 nskipped1=      599 nskipped2=      446
        J|fp>                          ... done (  0.0 sec) ndone=     4340 nskipped1=      100 nskipped2=      242
        J|fd>                          ... done (  0.0 sec) ndone=     1422 nskipped1=      100 nskipped2=        0
        J|ff>                          ... done (  0.0 sec) ndone=      158 nskipped1=        0 nskipped2=        0
        Coulomb matrix built in   0.0 sec

        Total time for Split-RI-J                ...    0.114 sec
          (0) Prelude                            ...    0.000 sec
          (1) Hermite density                    ...    0.000 sec
          (2) Aux basis density                  ...    0.000 sec (inner=  0.0)
          (3) Linear equation solution           ...    0.000 sec
          (4) J-Matrix construction              ...    0.048 sec (inner=  0.0)
        ---------------------------------------------------------

                         ----------------------------
                         !        ITERATION     5   !
                         ----------------------------
   Total Energy        :   -1961.890534698419 Eh
   Energy Change       :      -0.041437453134 Eh
   MAX-DP              :       0.126090458982
   RMS-DP              :       0.002154320234
   Actual Damping      :       0.7000
   Actual Level Shift  :       0.2500 Eh
   Int. Num. El.       :    75.99011469 (UP=   37.99505735 DN=   37.99505735)
   Exchange            :   -89.66081392
   Correlation         :    -3.64404098
   DIIS-Error          :       0.313910678550
   DIIS coefficients:
      0.75506  -0.21214   0.45707

==>> SHARK/AuxDens: NDens=1 Thresh =     2.500000e-11 TCut=    2.500000e-12 Lmax=3 LmaxAux=4
    -> Making Hermite density - ok     0.002 sec
    -> Making Aux-basis density - (lmax=3)
    -> L=0 0:    0.007 sec done=     19852 ( 96.4%) skipped=       748 
    -> L=1 0:    0.015 sec done=     27457 ( 97.0%) skipped=       842 
    -> L=1 1:    0.010 sec done=     10299 (100.0%) skipped=         1 
    -> L=2 0:    0.009 sec done=     12944 ( 89.9%) skipped=      1456 
    -> L=2 1:    0.010 sec done=      9503 ( 98.0%) skipped=       197 
    -> L=2 2:    0.014 sec done=      2700 ( 96.4%) skipped=       100 
    -> L=3 0:    0.001 sec done=      1602 ( 80.1%) skipped=       398 
    -> L=3 1:    0.002 sec done=      1217 ( 87.0%) skipped=       182 
    -> L=3 2:    0.001 sec done=       600 ( 85.8%) skipped=        99 
    -> L=3 3:    0.000 sec done=       100 (100.0%) skipped=         0 
    -> Aux basis density formed in    0.1 sec
    -> Solving linear equations - ok (   0.0 sec)
        Auxbasis Hermite Density:
        P|s>                     ...  0.000
        P|p>                     ...  0.000
        P|d>                     ...  0.000
        P|f>                     ...  0.000
        P|g>                     ...  0.000
        Building the Coulomb matrix: 
        J|ss>                          ... done (  0.0 sec) ndone=   130345 nskipped1=     2114 nskipped2=     2275
        J|ps>                          ... done (  0.0 sec) ndone=   164529 nskipped1=     3490 nskipped2=     6797
        J|pp>                          ... done (  0.0 sec) ndone=    67476 nskipped1=      123 nskipped2=     1828
        J|ds>                          ... done (  0.0 sec) ndone=    59217 nskipped1=     3484 nskipped2=     1879
        J|dp>                          ... done (  0.0 sec) ndone=    42393 nskipped1=      129 nskipped2=      526
        J|dd>                          ... done (  0.0 sec) ndone=     9006 nskipped1=      100 nskipped2=        0
        J|fs>                          ... done (  0.0 sec) ndone=     6033 nskipped1=      599 nskipped2=      446
        J|fp>                          ... done (  0.0 sec) ndone=     4340 nskipped1=      100 nskipped2=      242
        J|fd>                          ... done (  0.0 sec) ndone=     1422 nskipped1=      100 nskipped2=        0
        J|ff>                          ... done (  0.0 sec) ndone=      158 nskipped1=        0 nskipped2=        0
        Coulomb matrix built in   0.0 sec

        Total time for Split-RI-J                ...    0.118 sec
          (0) Prelude                            ...    0.000 sec
          (1) Hermite density                    ...    0.000 sec
          (2) Aux basis density                  ...    0.000 sec (inner=  0.0)
          (3) Linear equation solution           ...    0.000 sec
          (4) J-Matrix construction              ...    0.044 sec (inner=  0.0)
        ---------------------------------------------------------

                         ----------------------------
                         !        ITERATION     6   !
                         ----------------------------
   Total Energy        :   -1961.928410667272 Eh
   Energy Change       :      -0.037875968853 Eh
   MAX-DP              :       0.131483525877
   RMS-DP              :       0.002138660101
   Actual Damping      :       0.7000
   Actual Level Shift  :       0.2500 Eh
   Int. Num. El.       :    75.99059075 (UP=   37.99529538 DN=   37.99529538)
   Exchange            :   -89.72939513
   Correlation         :    -3.64596158
   DIIS-Error          :       0.257580789912
   DIIS coefficients:
      0.58353  -0.36027  -0.25392   1.03066

==>> SHARK/AuxDens: NDens=1 Thresh =     2.500000e-11 TCut=    2.500000e-12 Lmax=3 LmaxAux=4
    -> Making Hermite density - ok     0.002 sec
    -> Making Aux-basis density - (lmax=3)
    -> L=0 0:    0.027 sec done=     19719 ( 95.7%) skipped=       881 
    -> L=1 0:    0.014 sec done=     27465 ( 97.1%) skipped=       834 
    -> L=1 1:    0.010 sec done=     10299 (100.0%) skipped=         1 
    -> L=2 0:    0.008 sec done=     12927 ( 89.8%) skipped=      1473 
    -> L=2 1:    0.012 sec done=      9503 ( 98.0%) skipped=       197 
    -> L=2 2:    0.005 sec done=      2700 ( 96.4%) skipped=       100 
    -> L=3 0:    0.001 sec done=      1601 ( 80.0%) skipped=       399 
    -> L=3 1:    0.002 sec done=      1213 ( 86.7%) skipped=       186 
    -> L=3 2:    0.002 sec done=       600 ( 85.8%) skipped=        99 
    -> L=3 3:    0.000 sec done=       100 (100.0%) skipped=         0 
    -> Aux basis density formed in    0.1 sec
    -> Solving linear equations - ok (   0.0 sec)
        Auxbasis Hermite Density:
        P|s>                     ...  0.000
        P|p>                     ...  0.000
        P|d>                     ...  0.000
        P|f>                     ...  0.000
        P|g>                     ...  0.000
        Building the Coulomb matrix: 
        J|ss>                          ... done (  0.0 sec) ndone=   130349 nskipped1=     2046 nskipped2=     2279
        J|ps>                          ... done (  0.0 sec) ndone=   164583 nskipped1=     3440 nskipped2=     6819
        J|pp>                          ... done (  0.0 sec) ndone=    67475 nskipped1=      117 nskipped2=     1817
        J|ds>                          ... done (  0.0 sec) ndone=    59193 nskipped1=     3490 nskipped2=     1817
        J|dp>                          ... done (  0.0 sec) ndone=    42409 nskipped1=      125 nskipped2=      526
        J|dd>                          ... done (  0.0 sec) ndone=     9006 nskipped1=      100 nskipped2=        0
        J|fs>                          ... done (  0.0 sec) ndone=     6033 nskipped1=      599 nskipped2=      446
        J|fp>                          ... done (  0.0 sec) ndone=     4340 nskipped1=      100 nskipped2=      242
        J|fd>                          ... done (  0.0 sec) ndone=     1422 nskipped1=      100 nskipped2=        0
        J|ff>                          ... done (  0.0 sec) ndone=      158 nskipped1=        0 nskipped2=        0
        Coulomb matrix built in   0.1 sec

        Total time for Split-RI-J                ...    0.154 sec
          (0) Prelude                            ...    0.000 sec
          (1) Hermite density                    ...    0.000 sec
          (2) Aux basis density                  ...    0.000 sec (inner=  0.0)
          (3) Linear equation solution           ...    0.000 sec
          (4) J-Matrix construction              ...    0.069 sec (inner=  0.1)
        ---------------------------------------------------------

                         ----------------------------
                         !        ITERATION     7   !
                         ----------------------------
   Total Energy        :   -1961.958899921394 Eh
   Energy Change       :      -0.030489254122 Eh
   MAX-DP              :       0.128959570790
   RMS-DP              :       0.002023946511
   Actual Damping      :       0.7000
   Actual Level Shift  :       0.2500 Eh
   Int. Num. El.       :    75.99108670 (UP=   37.99554335 DN=   37.99554335)
   Exchange            :   -89.78819314
   Correlation         :    -3.64769484
   DIIS-Error          :       0.205778970590
   DIIS coefficients:
      0.33420  -0.33849  -0.32392  -0.25414   1.58234

==>> SHARK/AuxDens: NDens=1 Thresh =     2.500000e-11 TCut=    2.500000e-12 Lmax=3 LmaxAux=4
    -> Making Hermite density - ok     0.002 sec
    -> Making Aux-basis density - (lmax=3)
    -> L=0 0:    0.007 sec done=     19684 ( 95.6%) skipped=       916 
    -> L=1 0:    0.015 sec done=     27448 ( 97.0%) skipped=       851 
    -> L=1 1:    0.010 sec done=     10299 (100.0%) skipped=         1 
    -> L=2 0:    0.009 sec done=     12891 ( 89.5%) skipped=      1509 
    -> L=2 1:    0.012 sec done=      9502 ( 98.0%) skipped=       198 
    -> L=2 2:    0.005 sec done=      2700 ( 96.4%) skipped=       100 
    -> L=3 0:    0.002 sec done=      1574 ( 78.7%) skipped=       426 
    -> L=3 1:    0.002 sec done=      1217 ( 87.0%) skipped=       182 
    -> L=3 2:    0.002 sec done=       600 ( 85.8%) skipped=        99 
    -> L=3 3:    0.000 sec done=       100 (100.0%) skipped=         0 
    -> Aux basis density formed in    0.1 sec
    -> Solving linear equations - ok (   0.0 sec)
        Auxbasis Hermite Density:
        P|s>                     ...  0.000
        P|p>                     ...  0.000
        P|d>                     ...  0.000
        P|f>                     ...  0.000
        P|g>                     ...  0.000
        Building the Coulomb matrix: 
        J|ss>                          ... done (  0.0 sec) ndone=   130468 nskipped1=     1906 nskipped2=     2306
        J|ps>                          ... done (  0.0 sec) ndone=   164260 nskipped1=     3501 nskipped2=     6715
        J|pp>                          ... done (  0.0 sec) ndone=    67475 nskipped1=      117 nskipped2=     1817
        J|ds>                          ... done (  0.0 sec) ndone=    58975 nskipped1=     3523 nskipped2=     1714
        J|dp>                          ... done (  0.0 sec) ndone=    42401 nskipped1=      127 nskipped2=      526
        J|dd>                          ... done (  0.0 sec) ndone=     9006 nskipped1=      100 nskipped2=        0
        J|fs>                          ... done (  0.0 sec) ndone=     6011 nskipped1=      604 nskipped2=      433
        J|fp>                          ... done (  0.0 sec) ndone=     4340 nskipped1=      100 nskipped2=      242
        J|fd>                          ... done (  0.0 sec) ndone=     1422 nskipped1=      100 nskipped2=        0
        J|ff>                          ... done (  0.0 sec) ndone=      158 nskipped1=        0 nskipped2=        0
        Coulomb matrix built in   0.0 sec

        Total time for Split-RI-J                ...    0.135 sec
          (0) Prelude                            ...    0.000 sec
          (1) Hermite density                    ...    0.000 sec
          (2) Aux basis density                  ...    0.000 sec (inner=  0.0)
          (3) Linear equation solution           ...    0.000 sec
          (4) J-Matrix construction              ...    0.046 sec (inner=  0.0)
        ---------------------------------------------------------

                         ----------------------------
                         !        ITERATION     8   !
                         ----------------------------
   Total Energy        :   -1961.982379138311 Eh
   Energy Change       :      -0.023479216916 Eh
   MAX-DP              :       0.129846011825
   RMS-DP              :       0.001977134702
   Actual Damping      :       0.7000
   Actual Level Shift  :       0.2500 Eh
   Int. Num. El.       :    75.99157276 (UP=   37.99578638 DN=   37.99578638)
   Exchange            :   -89.83979638
   Correlation         :    -3.64926742
   DIIS-Error          :       0.157274918138
   DIIS coefficients:
      2.12078  -0.26158  -0.28701  -0.30816  -0.26403

==>> SHARK/AuxDens: NDens=1 Thresh =     2.500000e-11 TCut=    2.500000e-12 Lmax=3 LmaxAux=4
    -> Making Hermite density - ok     0.002 sec
    -> Making Aux-basis density - (lmax=3)
    -> L=0 0:    0.006 sec done=     19684 ( 95.6%) skipped=       916 
    -> L=1 0:    0.013 sec done=     27422 ( 96.9%) skipped=       877 
    -> L=1 1:    0.010 sec done=     10299 (100.0%) skipped=         1 
    -> L=2 0:    0.008 sec done=     12908 ( 89.6%) skipped=      1492 
    -> L=2 1:    0.010 sec done=      9502 ( 98.0%) skipped=       198 
    -> L=2 2:    0.004 sec done=      2700 ( 96.4%) skipped=       100 
    -> L=3 0:    0.002 sec done=      1617 ( 80.8%) skipped=       383 
    -> L=3 1:    0.002 sec done=      1226 ( 87.6%) skipped=       173 
    -> L=3 2:    0.001 sec done=       600 ( 85.8%) skipped=        99 
    -> L=3 3:    0.000 sec done=       100 (100.0%) skipped=         0 
    -> Aux basis density formed in    0.1 sec
    -> Solving linear equations - ok (   0.0 sec)
        Auxbasis Hermite Density:
        P|s>                     ...  0.000
        P|p>                     ...  0.000
        P|d>                     ...  0.000
        P|f>                     ...  0.000
        P|g>                     ...  0.000
        Building the Coulomb matrix: 
        J|ss>                          ... done (  0.0 sec) ndone=   129657 nskipped1=     2036 nskipped2=     2183
        J|ps>                          ... done (  0.0 sec) ndone=   163578 nskipped1=     3683 nskipped2=     6443
        J|pp>                          ... done (  0.0 sec) ndone=    67367 nskipped1=      134 nskipped2=     1818
        J|ds>                          ... done (  0.0 sec) ndone=    58558 nskipped1=     3652 nskipped2=     1546
        J|dp>                          ... done (  0.0 sec) ndone=    42378 nskipped1=      131 nskipped2=      510
        J|dd>                          ... done (  0.0 sec) ndone=     9006 nskipped1=      100 nskipped2=        0
        J|fs>                          ... done (  0.0 sec) ndone=     5856 nskipped1=      653 nskipped2=      353
        J|fp>                          ... done (  0.0 sec) ndone=     4308 nskipped1=      115 nskipped2=      199
        J|fd>                          ... done (  0.0 sec) ndone=     1422 nskipped1=      100 nskipped2=        0
        J|ff>                          ... done (  0.0 sec) ndone=      158 nskipped1=        0 nskipped2=        0
        Coulomb matrix built in   0.1 sec

        Total time for Split-RI-J                ...    0.116 sec
          (0) Prelude                            ...    0.000 sec
          (1) Hermite density                    ...    0.000 sec
          (2) Aux basis density                  ...    0.000 sec (inner=  0.0)
          (3) Linear equation solution           ...    0.000 sec
          (4) J-Matrix construction              ...    0.058 sec (inner=  0.1)
        ---------------------------------------------------------

                         ----------------------------
                         !        ITERATION     9   !
                         ----------------------------
   Total Energy        :   -1962.000092713390 Eh
   Energy Change       :      -0.017713575080 Eh
   MAX-DP              :       0.110913196073
   RMS-DP              :       0.001628179135
   Actual Damping      :       0.7000
   Actual Level Shift  :       0.2500 Eh
   Int. Num. El.       :    75.99206172 (UP=   37.99603086 DN=   37.99603086)
   Exchange            :   -89.89257401
   Correlation         :    -3.65086986
   DIIS-Error          :       0.106585738212
   DIIS coefficients:
     -0.20543   1.79824  -0.17545  -0.19901  -0.21836

==>> SHARK/AuxDens: NDens=1 Thresh =     2.500000e-11 TCut=    2.500000e-12 Lmax=3 LmaxAux=4
    -> Making Hermite density - ok     0.002 sec
    -> Making Aux-basis density - (lmax=3)
    -> L=0 0:    0.006 sec done=     19725 ( 95.8%) skipped=       875 
    -> L=1 0:    0.011 sec done=     27363 ( 96.7%) skipped=       936 
    -> L=1 1:    0.008 sec done=     10295 (100.0%) skipped=         5 
    -> L=2 0:    0.008 sec done=     12790 ( 88.8%) skipped=      1610 
    -> L=2 1:    0.012 sec done=      9500 ( 97.9%) skipped=       200 
    -> L=2 2:    0.005 sec done=      2700 ( 96.4%) skipped=       100 
    -> L=3 0:    0.002 sec done=      1551 ( 77.5%) skipped=       449 
    -> L=3 1:    0.002 sec done=      1207 ( 86.3%) skipped=       192 
    -> L=3 2:    0.001 sec done=       600 ( 85.8%) skipped=        99 
    -> L=3 3:    0.000 sec done=       100 (100.0%) skipped=         0 
    -> Aux basis density formed in    0.1 sec
    -> Solving linear equations - ok (   0.0 sec)
        Auxbasis Hermite Density:
        P|s>                     ...  0.000
        P|p>                     ...  0.000
        P|d>                     ...  0.000
        P|f>                     ...  0.000
        P|g>                     ...  0.000
        Building the Coulomb matrix: 
        J|ss>                          ... done (  0.0 sec) ndone=   130032 nskipped1=     2310 nskipped2=     2208
        J|ps>                          ... done (  0.0 sec) ndone=   164362 nskipped1=     3506 nskipped2=     6720
        J|pp>                          ... done (  0.0 sec) ndone=    67446 nskipped1=      129 nskipped2=     1816
        J|ds>                          ... done (  0.0 sec) ndone=    59053 nskipped1=     3530 nskipped2=     1737
        J|dp>                          ... done (  0.0 sec) ndone=    42384 nskipped1=      130 nskipped2=      526
        J|dd>                          ... done (  0.0 sec) ndone=     9006 nskipped1=      100 nskipped2=        0
        J|fs>                          ... done (  0.0 sec) ndone=     6033 nskipped1=      599 nskipped2=      446
        J|fp>                          ... done (  0.0 sec) ndone=     4340 nskipped1=      100 nskipped2=      242
        J|fd>                          ... done (  0.0 sec) ndone=     1422 nskipped1=      100 nskipped2=        0
        J|ff>                          ... done (  0.0 sec) ndone=      158 nskipped1=        0 nskipped2=        0
        Coulomb matrix built in   0.1 sec

        Total time for Split-RI-J                ...    0.127 sec
          (0) Prelude                            ...    0.000 sec
          (1) Hermite density                    ...    0.000 sec
          (2) Aux basis density                  ...    0.000 sec (inner=  0.0)
          (3) Linear equation solution           ...    0.000 sec
          (4) J-Matrix construction              ...    0.068 sec (inner=  0.1)
        ---------------------------------------------------------

                         ----------------------------
                         !        ITERATION    10   !
                         ----------------------------
   Total Energy        :   -1962.010446991112 Eh
   Energy Change       :      -0.010354277722 Eh
   MAX-DP              :       0.289018578641
   RMS-DP              :       0.004142496526
   Actual Damping      :       0.0000
   Actual Level Shift  :       0.2500 Eh
   Int. Num. El.       :    75.99247912 (UP=   37.99623956 DN=   37.99623956)
   Exchange            :   -89.93578994
   Correlation         :    -3.65219935
   DIIS-Error          :       0.070009164471
   DIIS coefficients:
     -0.17704  -0.16803   1.62284  -0.12598  -0.15179

==>> SHARK/AuxDens: NDens=1 Thresh =     2.500000e-11 TCut=    2.500000e-12 Lmax=3 LmaxAux=4
    -> Making Hermite density - ok     0.002 sec
    -> Making Aux-basis density - (lmax=3)
    -> L=0 0:    0.006 sec done=     19692 ( 95.6%) skipped=       908 
    -> L=1 0:    0.012 sec done=     27480 ( 97.1%) skipped=       819 
    -> L=1 1:    0.008 sec done=     10300 (100.0%) skipped=         0 
    -> L=2 0:    0.007 sec done=     13151 ( 91.3%) skipped=      1249 
    -> L=2 1:    0.010 sec done=      9507 ( 98.0%) skipped=       193 
    -> L=2 2:    0.004 sec done=      2700 ( 96.4%) skipped=       100 
    -> L=3 0:    0.001 sec done=      1715 ( 85.8%) skipped=       285 
    -> L=3 1:    0.002 sec done=      1232 ( 88.1%) skipped=       167 
    -> L=3 2:    0.001 sec done=       600 ( 85.8%) skipped=        99 
    -> L=3 3:    0.000 sec done=       100 (100.0%) skipped=         0 
    -> Aux basis density formed in    0.1 sec
    -> Solving linear equations - ok (   0.0 sec)
        Auxbasis Hermite Density:
        P|s>                     ...  0.000
        P|p>                     ...  0.000
        P|d>                     ...  0.000
        P|f>                     ...  0.000
        P|g>                     ...  0.000
        Building the Coulomb matrix: 
        J|ss>                          ... done (  0.0 sec) ndone=   131151 nskipped1=     1394 nskipped2=     2387
        J|ps>                          ... done (  0.0 sec) ndone=   164748 nskipped1=     3265 nskipped2=     7053
        J|pp>                          ... done (  0.0 sec) ndone=    67526 nskipped1=       69 nskipped2=     1859
        J|ds>                          ... done (  0.0 sec) ndone=    59291 nskipped1=     3397 nskipped2=     1908
        J|dp>                          ... done (  0.0 sec) ndone=    42425 nskipped1=      112 nskipped2=      526
        J|dd>                          ... done (  0.0 sec) ndone=     9007 nskipped1=       99 nskipped2=        0
        J|fs>                          ... done (  0.0 sec) ndone=     6035 nskipped1=      597 nskipped2=      446
        J|fp>                          ... done (  0.0 sec) ndone=     4340 nskipped1=      100 nskipped2=      242
        J|fd>                          ... done (  0.0 sec) ndone=     1422 nskipped1=      100 nskipped2=        0
        J|ff>                          ... done (  0.0 sec) ndone=      158 nskipped1=        0 nskipped2=        0
        Coulomb matrix built in   0.1 sec

        Total time for Split-RI-J                ...    0.119 sec
          (0) Prelude                            ...    0.000 sec
          (1) Hermite density                    ...    0.000 sec
          (2) Aux basis density                  ...    0.000 sec (inner=  0.0)
          (3) Linear equation solution           ...    0.000 sec
          (4) J-Matrix construction              ...    0.064 sec (inner=  0.1)
        ---------------------------------------------------------

                         ----------------------------
                         !        ITERATION    11   !
                         ----------------------------
[...]
GEPOL Volume                                      ...     834.3805
GEPOL Surface-area                                ...     486.4217
Calculating surface distance matrix               ...        done! (  0.0s)
Performing Cholesky decomposition & store         ...        done! (  0.0s)
Overall time for CPCM initialization              ...                 0.0s
--------------
SCF ITERATIONS
--------------
ITER       Energy         Delta-E        Max-DP      RMS-DP      [F,P]     Damp
               ***  Starting incremental Fock matrix formation  ***
                      *** Initiating the SOSCF procedure ***
                      *** Re-Reading the Fockian *** 
                      *** Removing any level shift *** 
ITER      Energy       Delta-E        Grad      Rot      Max-DP    RMS-DP
  0  -1962.10997437 -1962.1099743724  0.002421  0.002421  0.004312  0.000233
               *** Restarting incremental Fock matrix formation ***
  1  -1962.11010628  -0.0001319072  0.000757  0.002729  0.003488  0.000174
  2  -1962.11009269   0.0000135939  0.001556  0.001943  0.004954  0.000112
  3  -1962.11013509  -0.0000424083  0.000321  0.002520  0.005672  0.000089
  4  -1962.11013058   0.0000045185  0.000800  0.001522  0.003507  0.000055
  5  -1962.11013864  -0.0000080628  0.000156  0.001269  0.001338  0.000032
  6  -1962.11013989  -0.0000012512  0.000137  0.003188  0.003431  0.000069
  7  -1962.11014201  -0.0000021242  0.000106  0.004784  0.005213  0.000101
  8  -1962.11014331  -0.0000012981  0.000109  0.000575  0.000645  0.000021
  9  -1962.11014372  -0.0000004102  0.000047  0.000560  0.000491  0.000012
 10  -1962.11014384  -0.0000001222  0.000020  0.000513  0.000411  0.000011
 11  -1962.11014386  -0.0000000125  0.000034  0.000208  0.000222  0.000005
 12  -1962.11014389  -0.0000000304  0.000007  0.000069  0.000058  0.000002
 13  -1962.11014389  -0.0000000028  0.000007  0.000113  0.000110  0.000003
 14  -1962.11014390  -0.0000000056  0.000007  0.000476  0.000485  0.000011
 15  -1962.11014391  -0.0000000129  0.000012  0.000269  0.000287  0.000006
 16  -1962.11014391  -0.0000000066  0.000007  0.000060  0.000056  0.000001
 17  -1962.11014392  -0.0000000025  0.000004  0.000103  0.000082  0.000002
 18  -1962.11014392  -0.0000000020  0.000003  0.000153  0.000103  0.000003
 19  -1962.11014392  -0.0000000030  0.000004  0.000397  0.000240  0.000007
 20  -1962.11014393  -0.0000000056  0.000006  0.000475  0.000295  0.000008
               *** Restarting incremental Fock matrix formation ***

 WARNING: the maximum gradient error descreased on average only by a factor   1.1
          during the last 20 iterations

                      *** Initiating the TRAH-SCF procedure ***

              ***Rediagonalizing the Fockian in SOSCF/NRSCF***

TRAH GRIDX
----------

General Integration Accuracy     IntAcc      ... 3.067
Radial Grid Type                 RadialGrid  ... OptM3 with GC (2021)
Angular Grid (max. ang.)         AngularGrid ... 1 (Lebedev-50)
Angular grid pruning method      GridPruning ... 4 (adaptive)
Weight generation scheme         WeightScheme... Becke
Basis function cutoff            BFCut       ... 1.0000e-11
Integration weight cutoff        WCut        ... 1.0000e-14
Angular grids for H and He will be reduced by one unit
Partially contracted basis set               ... on
Rotationally invariant grid construction     ... off

Total number of grid points                  ...     3045
Total number of batches                      ...       51
Average number of points per batch           ...       59
Average number of grid points per atom       ...      508


TRAH GRID
---------

General Integration Accuracy     IntAcc      ... 3.467
Radial Grid Type                 RadialGrid  ... OptM3 with GC (2021)
Angular Grid (max. ang.)         AngularGrid ... 1 (Lebedev-50)
Angular grid pruning method      GridPruning ... 4 (adaptive)
Weight generation scheme         WeightScheme... Becke
Basis function cutoff            BFCut       ... 1.0000e-11
Integration weight cutoff        WCut        ... 1.0000e-14
Angular grids for H and He will be reduced by one unit
Partially contracted basis set               ... off
Rotationally invariant grid construction     ... off

Total number of grid points                  ...     9219
Total number of batches                      ...      148
Average number of points per batch           ...       62
Average number of grid points per atom       ...     1536

 --------------------------------------------------------------------------------------------
   Iter.        energy            ||Error||_2        Shift      TRadius  Mac/Mic        Rej.
 --------------------------------------------------------------------------------------------
    0      -1962.110143933312     1.431109e-04                     0.400 (TRAH MAcro)   No
    0     dE    -6.835674e-10     1.319036e-04    -1.3881e-09      0.000 (TRAH MIcro)
    0     dE    -1.745861e-09     9.043641e-05    -3.4921e-09      0.000 (TRAH MIcro)
    0     dE    -2.191376e-09     6.325745e-05    -4.3829e-09      0.000 (TRAH MIcro)
    0     dE    -2.318415e-09     2.736297e-05    -4.6370e-09      0.000 (TRAH MIcro)
    0     dE    -2.408236e-09     2.677122e-05    -4.8166e-09      0.000 (TRAH MIcro)
    0     dE    -2.619842e-09     4.783228e-05    -5.2397e-09      0.000 (TRAH MIcro)
    0     dE    -2.822628e-09     1.789457e-05    -5.6453e-09      0.000 (TRAH MIcro)
    0     dE    -2.855708e-09     1.299410e-05    -5.7114e-09      0.000 (TRAH MIcro)
    0     dE    -2.875202e-09     1.101233e-05    -5.7504e-09      0.000 (TRAH MIcro)
    0     dE    -2.891273e-09     1.138176e-05    -5.7825e-09      0.000 (TRAH MIcro)
    0     dE    -2.936858e-09     2.342541e-05    -5.8737e-09      0.000 (TRAH MIcro)
    0     dE    -2.998304e-09     1.602100e-05    -5.9966e-09      0.000 (TRAH MIcro)
    0     dE    -3.020180e-09     1.178376e-05    -6.0404e-09      0.000 (TRAH MIcro)
    0     dE    -3.028872e-09     6.212058e-06    -6.0577e-09      0.000 (TRAH MIcro)
    1      -1962.110143936651     6.557821e-06                           (NR   MAcro)

               *****************************************************
               *                     SUCCESS                       *
               *           SCF CONVERGED AFTER  37 CYCLES          *
               *****************************************************

Old exchange energy                            =    -22.558492551 Eh
New exchange energy                            =    -22.558464627 Eh
Exchange energy change after final integration =      0.000027924 Eh
Total energy after final integration           =  -1962.110116013 Eh
Final COS-X integration done in                =     3.855 sec
Total Energy       :        -1962.11011601 Eh          -53391.73064 eV
  Last Energy change         ...   -3.3390e-09  Tolerance :   1.0000e-08
  Last Orbital Gradient      ...    6.5578e-06  Tolerance :   1.0000e-05
  Last Orbital Rotation      ...    3.0883e-04

             **** THE GBW FILE WAS UPDATED (FeSO4_DFT.gbw) ****
             **** DENSITY FeSO4_DFT.scfp WAS UPDATED ****
             **** ENERGY FILE WAS UPDATED (FeSO4_DFT.en.tmp) ****
             **** THE GBW FILE WAS UPDATED (FeSO4_DFT.gbw) ****
             **** DENSITY FeSO4_DFT.scfp WAS UPDATED ****
Total SCF time: 0 days 0 hours 1 min 0 sec 

Maximum memory used throughout the entire SCF-calculation: 76.3 MB

-------------------------   --------------------
FINAL SINGLE POINT ENERGY     -1962.110116012710
-------------------------   --------------------

------------------------------------------------------------------------------
                         ORCA SCF GRADIENT CALCULATION
------------------------------------------------------------------------------

 ... reading COSX grid (gridx3)
Gradient of the Kohn-Sham DFT energy:
Kohn-Sham wavefunction type      ... RKS
Hartree-Fock exchange scaling    ...    0.200
Number of operators              ...    1
Number of atoms                  ...    6
Basis set dimensions             ...  105
Integral neglect threshold       ... 2.5e-11
Integral primitive cutoff        ... 2.5e-12
SHARK Integral package           ... ON

Nuc. rep. gradient       (SHARK) ... done (  0.0 sec)
HCore & Overlap gradient (SHARK) ... done (  0.0 sec)
RI-J gradient            (SHARK) ... done (  0.7 sec)
COSX-gradient                    ... done (  3.6 sec)
Exchange-correlation gradient    ... done

------------------
CARTESIAN GRADIENT
------------------

   1   O   :    0.004829955   -0.001203419    0.004751038
   2   S   :   -0.009535287    0.004255880   -0.002250121
   3   O   :    0.001268382   -0.003359674    0.000811995
   4   O   :    0.001796712   -0.002144592   -0.004175011
   5   O   :    0.002727242    0.003612944   -0.007318292
   6   Fe  :   -0.001901539   -0.001827015    0.007866324

Difference to translation invariance:
           :   -0.0008145356   -0.0006658759   -0.0003140666

Difference to rotation invariance:
           :    0.0001853621    0.0022458693   -0.0043125023

Norm of the cartesian gradient     ...    0.0185240793
RMS gradient                       ...    0.0043661674
MAX gradient                       ...    0.0095352873

-------
TIMINGS
-------

Total SCF gradient time            ...        6.078 sec

One electron gradient       ....       0.050 sec  (  0.8%)
RI-J Coulomb gradient       ....       0.661 sec  ( 10.9%)
COSX gradient               ....       3.595 sec  ( 59.1%)
XC gradient                 ....       1.264 sec  ( 20.8%)
CPCM gradient               ....       0.146 sec  (  2.4%)
   A-Matrix (El+Nuc)        ....       0.007 sec  (  0.1%)
   Potential                ....       0.139 sec  (  2.3%)

Maximum memory used throughout the entire SCFGRAD-calculation: 50.3 MB
------------------------------------------------------------------------------
                         ORCA GEOMETRY RELAXATION STEP
------------------------------------------------------------------------------

Reading the OPT-File                    .... done
Getting information on internals        .... done
Copying old internal coords+grads       .... done
Making the new internal coordinates     .... (new redundants).... done
Validating the new internal coordinates .... (new redundants).... done
Calculating the B-matrix                .... done
Calculating the G,G- and P matrices     .... done
Transforming gradient to internals      .... done
Projecting the internal gradient        .... done
Number of atoms                         ....   6
Number of internal coordinates          ....  47
Current Energy                          .... -1962.110116013 Eh
Current gradient norm                   ....     0.018524079 Eh/bohr
Maximum allowed component of the step   ....  0.300
Current trust radius                    ....  0.300
Resetting Hessian after 50 BFGS Update Steps....
Build internal Hessian                  .... (Almloef) done
Updating Hessian with the last 5 steps  .... done
Forming the augmented Hessian           .... done
Diagonalizing the augmented Hessian     .... done
Last element of RFO vector              ....  0.034474428
Lowest eigenvalues of augmented Hessian:
 -0.313888143 -0.002052613  0.002434799  0.048397555  0.068739602
Warning: RFO finds a terribly low value for the scaling factor
Trying a QUASI-NEWTON step instead
Doing a quasi-Newton Step:
Inverting the Hessian                   .... done
Computing the step                      .... done
Length of the computed step             .... 27.009387999
Warning: the length of the step is outside the trust region - QNStep is scaled down
Converting the step to cartesian space:
 Initial RMS(Int)=    0.0437594974
Transforming coordinates:
 Iter   0:  RMS(Cart)=    0.0457539152 RMS(Int)=    1.2790291193
 Iter   1:  RMS(Cart)=    0.0010915440 RMS(Int)=    0.0011218303
 Iter   2:  RMS(Cart)=    0.0000574327 RMS(Int)=    0.0000639847
 Iter   3:  RMS(Cart)=    0.0000029291 RMS(Int)=    0.0000029409
 Iter   4:  RMS(Cart)=    0.0000001540 RMS(Int)=    0.0000001637
 Iter   5:  RMS(Cart)=    0.0000000085 RMS(Int)=    0.0000000084
done
Storing new coordinates                 .... done

                                .--------------------.
          ----------------------|Geometry convergence|-------------------------
          Item                value                   Tolerance       Converged
          ---------------------------------------------------------------------
          Energy change      -0.0001205823            0.0000050000      NO
          RMS gradient        0.0017493936            0.0001000000      NO
          MAX gradient        0.0055196099            0.0003000000      NO
          RMS step            0.0437594974            0.0020000000      NO
          MAX step            0.1077470633            0.0040000000      NO
          ........................................................
          Max(Bonds)      0.0570      Max(Angles)    3.15
          Max(Dihed)        4.92      Max(Improp)    0.00
          ---------------------------------------------------------------------

The optimization has not yet converged - more geometry cycles are needed


    ---------------------------------------------------------------------------
                         Redundant Internal Coordinates
                            (Angstroem and degrees)

        Definition                    Value    dE/dq     Step     New-Value
    ----------------------------------------------------------------------------
     1. B(S   1,O   0)                1.4853 -0.005430 -0.0021    1.4832   
     2. B(O   2,S   1)                1.4957  0.002242 -0.0003    1.4955   
     3. B(O   3,S   1)                1.5184 -0.002150  0.0034    1.5218   
     4. B(O   4,S   1)                1.5722 -0.005520 -0.0052    1.5671   
     5. B(Fe  5,S   1)                2.8142  0.002083 -0.0216    2.7926   
     6. B(Fe  5,O   3)                2.5160  0.003682 -0.0570    2.4590   
     7. B(Fe  5,O   0)                3.8286 -0.001151  0.0288    3.8574   
     8. B(Fe  5,O   4)                1.9038  0.001327  0.0059    1.9096   
     9. A(S   1,O   0,Fe  5)           38.14  0.000096   -2.28     35.87   
    10. A(O   2,S   1,O   3)          112.44  0.001372    0.08    112.52   
    11. A(O   3,S   1,Fe  5)           62.88  0.000745   -1.49     61.40   
    12. A(O   0,S   1,O   4)          108.39  0.000615    0.16    108.54   
    13. A(O   3,S   1,O   4)          103.00 -0.000006   -0.63    102.37   
    14. A(O   0,S   1,Fe  5)          122.83  0.000664    3.15    125.98   
    15. A(O   0,S   1,O   3)          113.05  0.000520    0.27    113.32   
    16. A(O   0,S   1,O   2)          111.68 -0.000549   -0.04    111.64   
    17. A(O   4,S   1,Fe  5)           40.11 -0.000748    0.86     40.98   
    18. A(O   2,S   1,O   4)          107.71 -0.002087    0.12    107.83   
    19. A(S   1,O   3,Fe  5)           84.62 -0.000017    1.06     85.68   
    20. A(S   1,O   4,Fe  5)          107.74  0.002706   -1.30    106.44   
    21. A(S   1,Fe  5,O   3)           32.49 -0.000728    0.43     32.92   
    22. A(O   0,Fe  5,O   3)           40.22 -0.000857   -0.56     39.66   
    23. A(O   0,Fe  5,S   1)           19.03 -0.000760   -0.87     18.15   
    24. A(O   3,Fe  5,O   4)           64.64 -0.002686    0.86     65.50   
    25. A(S   1,Fe  5,O   4)           32.15 -0.001958    0.44     32.59   
    26. A(O   0,Fe  5,O   4)           33.67 -0.001985   -0.95     32.72   
    27. D(O   2,S   1,O   0,Fe  5)    160.36 -0.003189    0.57    160.94   
    28. D(O   4,S   1,O   0,Fe  5)     41.87 -0.000687    0.35     42.22   
    29. D(O   3,S   1,O   0,Fe  5)    -71.64 -0.001339    0.87    -70.77   
    30. D(Fe  5,O   3,S   1,O   4)     -0.38 -0.000234    3.19      2.80   
    31. D(Fe  5,O   3,S   1,O   2)   -116.04  0.001594    3.36   -112.68   
    32. D(Fe  5,O   3,S   1,O   0)    116.36  0.000737    3.13    119.49   
    33. D(Fe  5,O   4,S   1,O   3)      0.53  0.000335   -4.58     -4.05   
    34. D(Fe  5,O   4,S   1,O   2)    119.53  0.000974   -4.75    114.78   
    35. D(Fe  5,O   4,S   1,O   0)   -119.48 -0.000542   -4.63   -124.12   
    36. D(O   3,Fe  5,S   1,O   0)   -101.14 -0.000805    1.59    -99.55   
    37. D(O   0,Fe  5,S   1,O   4)    -79.44  0.000442    3.33    -76.11   
    38. D(O   0,Fe  5,S   1,O   3)    101.14  0.000805   -1.59     99.55   
    39. D(O   4,Fe  5,O   0,S   1)    -70.64  0.000619   -4.38    -75.01   
    40. D(O   3,Fe  5,S   1,O   4)    179.42 -0.000363    4.92    184.34   
    41. D(O   0,Fe  5,O   4,S   1)     35.31  0.000491   -1.30     34.01   
    42. D(O   3,Fe  5,O   0,S   1)     54.71 -0.000406    2.31     57.02   
    43. D(O   4,Fe  5,O   3,S   1)      0.34  0.000203   -2.89     -2.55   
    44. D(O   0,Fe  5,O   3,S   1)    -29.69  0.000769    0.88    -28.81   
    45. D(O   4,Fe  5,S   1,O   3)   -179.42  0.000363   -4.92   -184.34   
    46. D(O   3,Fe  5,O   4,S   1)     -0.34 -0.000217    2.90      2.56   
    47. D(O   4,Fe  5,S   1,O   0)     79.44 -0.000442   -3.33     76.11   
    ----------------------------------------------------------------------------




    ----------------------------------------------------------------------------
                                  WARNING !!!
       The optimization did not converge but reached the maximum number of
       optimization cycles.
       Please check your results very carefully.
    ----------------------------------------------------------------------------



                            ***************************************
                            *     ORCA property calculations      *
                            ***************************************

                                    ---------------------
                                    Active property flags
                                    ---------------------
   (+) Dipole Moment


------------------------------------------------------------------------------
                       ORCA ELECTRIC PROPERTIES CALCULATION
------------------------------------------------------------------------------

Dipole Moment Calculation                       ... on
Quadrupole Moment Calculation                   ... off
Polarizability Calculation                      ... off
GBWName                                         ... FeSO4_DFT.gbw
Electron density                                ... FeSO4_DFT.scfp
The origin for moment calculation is the CENTER OF MASS  = ( 4.280880,  0.207507  0.945778)

-------------
DIPOLE MOMENT
-------------
                                X             Y             Z
Electronic contribution:      0.99330       2.43970       5.63307
Nuclear contribution   :      1.01606      -2.00368      -5.83564
                        -----------------------------------------
Total Dipole Moment    :      2.00936       0.43602      -0.20257
                        -----------------------------------------
Magnitude (a.u.)       :      2.06607
Magnitude (Debye)      :      5.25154



--------------------
Rotational spectrum 
--------------------
 
Rotational constants in cm-1:     0.176558     0.046288     0.046073 
Rotational constants in MHz :  5293.067040  1387.688557  1381.245766 

 Dipole components along the rotational axes: 
x,y,z [a.u.] :    -0.371260    -1.900202    -0.721148 
x,y,z [Debye]:    -0.943668    -4.829931    -1.833013 

 

Timings for individual modules:

Sum of individual times         ...     5721.618 sec (=  95.360 min)
GTO integral calculation        ...       22.923 sec (=   0.382 min)   0.4 %
SCF iterations                  ...     5045.478 sec (=  84.091 min)  88.2 %
SCF Gradient evaluation         ...      650.099 sec (=  10.835 min)  11.4 %
Geometry relaxation             ...        3.119 sec (=   0.052 min)   0.1 %
                             ****ORCA TERMINATED NORMALLY****
TOTAL RUN TIME: 0 days 1 hours 35 minutes 34 seconds 233 msec
