
                                 *****************
                                 * O   R   C   A *
                                 *****************

                                            #,                                       
                                            ###                                      
                                            ####                                     
                                            #####                                    
                                            ######                                   
                                           ########,                                 
                                     ,,################,,,,,                         
                               ,,#################################,,                 
                          ,,##########################################,,             
                       ,#########################################, ''#####,          
                    ,#############################################,,   '####,        
                  ,##################################################,,,,####,       
                ,###########''''           ''''###############################       
              ,#####''   ,,,,##########,,,,          '''####'''          '####       
            ,##' ,,,,###########################,,,                        '##       
           ' ,,###''''                  '''############,,,                           
         ,,##''                                '''############,,,,        ,,,,,,###''
      ,#''                                            '''#######################'''  
     '                                                          ''''####''''         
             ,#######,   #######,   ,#######,      ##                                
            ,#'     '#,  ##    ##  ,#'     '#,    #''#        ######   ,####,        
            ##       ##  ##   ,#'  ##            #'  '#       #        #'  '#        
            ##       ##  #######   ##           ,######,      #####,   #    #        
            '#,     ,#'  ##    ##  '#,     ,#' ,#      #,         ##   #,  ,#        
             '#######'   ##     ##  '#######'  #'      '#     #####' # '####'        



                  #######################################################
                  #                        -***-                        #
                  #          Department of theory and spectroscopy      #
                  #    Directorship and core code : Frank Neese         #
                  #        Max Planck Institute fuer Kohlenforschung    #
                  #                Kaiser Wilhelm Platz 1               #
                  #                 D-45470 Muelheim/Ruhr               #
                  #                      Germany                        #
                  #                                                     #
                  #                  All rights reserved                #
                  #                        -***-                        #
                  #######################################################


                         Program Version 5.0.4 -  RELEASE  -


 With contributions from (in alphabetic order):
   Daniel Aravena         : Magnetic Suceptibility
   Michael Atanasov       : Ab Initio Ligand Field Theory (pilot matlab implementation)
   Alexander A. Auer      : GIAO ZORA, VPT2 properties, NMR spectrum
   Ute Becker             : Parallelization
   Giovanni Bistoni       : ED, misc. LED, open-shell LED, HFLD
   Martin Brehm           : Molecular dynamics
   Dmytro Bykov           : SCF Hessian
   Vijay G. Chilkuri      : MRCI spin determinant printing, contributions to CSF-ICE
   Dipayan Datta          : RHF DLPNO-CCSD density
   Achintya Kumar Dutta   : EOM-CC, STEOM-CC
   Dmitry Ganyushin       : Spin-Orbit,Spin-Spin,Magnetic field MRCI
   Miquel Garcia          : C-PCM and meta-GGA Hessian, CC/C-PCM, Gaussian charge scheme
   Yang Guo               : DLPNO-NEVPT2, F12-NEVPT2, CIM, IAO-localization
   Andreas Hansen         : Spin unrestricted coupled pair/coupled cluster methods
   Benjamin Helmich-Paris : MC-RPA, TRAH-SCF, COSX integrals
   Lee Huntington         : MR-EOM, pCC
   Robert Izsak           : Overlap fitted RIJCOSX, COSX-SCS-MP3, EOM
   Marcus Kettner         : VPT2
   Christian Kollmar      : KDIIS, OOCD, Brueckner-CCSD(T), CCSD density, CASPT2, CASPT2-K
   Simone Kossmann        : Meta GGA functionals, TD-DFT gradient, OOMP2, MP2 Hessian
   Martin Krupicka        : Initial AUTO-CI
   Lucas Lang             : DCDCAS
   Marvin Lechner         : AUTO-CI (C++ implementation), FIC-MRCC
   Dagmar Lenk            : GEPOL surface, SMD
   Dimitrios Liakos       : Extrapolation schemes; Compound Job, initial MDCI parallelization
   Dimitrios Manganas     : Further ROCIS development; embedding schemes
   Dimitrios Pantazis     : SARC Basis sets
   Anastasios Papadopoulos: AUTO-CI, single reference methods and gradients
   Taras Petrenko         : DFT Hessian,TD-DFT gradient, ASA, ECA, R-Raman, ABS, FL, XAS/XES, NRVS
   Peter Pinski           : DLPNO-MP2, DLPNO-MP2 Gradient
   Christoph Reimann      : Effective Core Potentials
   Marius Retegan         : Local ZFS, SOC
   Christoph Riplinger    : Optimizer, TS searches, QM/MM, DLPNO-CCSD(T), (RO)-DLPNO pert. Triples
   Tobias Risthaus        : Range-separated hybrids, TD-DFT gradient, RPA, STAB
   Michael Roemelt        : Original ROCIS implementation
   Masaaki Saitow         : Open-shell DLPNO-CCSD energy and density
   Barbara Sandhoefer     : DKH picture change effects
   Avijit Sen             : IP-ROCIS
   Kantharuban Sivalingam : CASSCF convergence, NEVPT2, FIC-MRCI
   Bernardo de Souza      : ESD, SOC TD-DFT
   Georgi Stoychev        : AutoAux, RI-MP2 NMR, DLPNO-MP2 response
   Willem Van den Heuvel  : Paramagnetic NMR
   Boris Wezisla          : Elementary symmetry handling
   Frank Wennmohs         : Technical directorship


 We gratefully acknowledge several colleagues who have allowed us to
 interface, adapt or use parts of their codes:
   Stefan Grimme, W. Hujo, H. Kruse, P. Pracht,  : VdW corrections, initial TS optimization,
                  C. Bannwarth, S. Ehlert          DFT functionals, gCP, sTDA/sTD-DF
   Ed Valeev, F. Pavosevic, A. Kumar             : LibInt (2-el integral package), F12 methods
   Garnet Chan, S. Sharma, J. Yang, R. Olivares  : DMRG
   Ulf Ekstrom                                   : XCFun DFT Library
   Mihaly Kallay                                 : mrcc  (arbitrary order and MRCC methods)
   Jiri Pittner, Ondrej Demel                    : Mk-CCSD
   Frank Weinhold                                : gennbo (NPA and NBO analysis)
   Christopher J. Cramer and Donald G. Truhlar   : smd solvation model
   Lars Goerigk                                  : TD-DFT with DH, B97 family of functionals
   V. Asgeirsson, H. Jonsson                     : NEB implementation
   FAccTs GmbH                                   : IRC, NEB, NEB-TS, DLPNO-Multilevel, CI-OPT
                                                   MM, QMMM, 2- and 3-layer-ONIOM, Crystal-QMMM,
                                                   LR-CPCM, SF, NACMEs, symmetry and pop. for TD-DFT,
                                                   nearIR, NL-DFT gradient (VV10), updates on ESD,
                                                   ML-optimized integration grids
   S Lehtola, MJT Oliveira, MAL Marques          : LibXC Library
   Liviu Ungur et al                             : ANISO software


 Your calculation uses the libint2 library for the computation of 2-el integrals
 For citations please refer to: http://libint.valeyev.net

 Your ORCA version has been built with support for libXC version: 5.1.0
 For citations please refer to: https://tddft.org/programs/libxc/

 This ORCA versions uses:
   CBLAS   interface :  Fast vector & matrix operations
   LAPACKE interface :  Fast linear algebra routines
   SCALAPACK package :  Parallel linear algebra routines
   Shared memory     :  Shared parallel matrices
   BLAS/LAPACK       :  OpenBLAS 0.3.15  USE64BITINT DYNAMIC_ARCH NO_AFFINITY SkylakeX SINGLE_THREADED
        Core in use  :  SkylakeX
   Copyright (c) 2011-2014, The OpenBLAS Project


================================================================================

----- Orbital basis set information -----
Your calculation utilizes the basis: def2-SVP
   F. Weigend and R. Ahlrichs, Phys. Chem. Chem. Phys. 7, 3297 (2005).

----- AuxJ basis set information -----
Your calculation utilizes the auxiliary basis: def2/J
   F. Weigend, Phys. Chem. Chem. Phys. 8, 1057 (2006).

================================================================================
                                        WARNINGS
                       Please study these warnings very carefully!
================================================================================


WARNING: Geometry Optimization
  ===> : Switching off AutoStart
         For restart on a previous wavefunction, please use MOREAD

INFO   : the flag for use of the SHARK integral package has been found!

================================================================================
                                       INPUT FILE
================================================================================
NAME = Et3N_DFT.inp
|  1> ## avogadro generated ORCA input file 
|  2> # Advanced Mode
|  3> # 
|  4> ! B3LYP OPT def2-SVP NormalPrint defgrid2 NormalSCF 
|  5> 
|  6> ! CPCM
|  7> %cpcm
|  8> epsilon 69.0
|  9> refrac 1.34
| 10> end
| 11> 
| 12> %scf
| 13> 	MaxIter 125
| 14> 	CNVDIIS 1
| 15> 	CNVSOSCF 1 
| 16> end
| 17> 
| 18> * xyz 0 1
| 19>    C        1.68964        0.62504        0.70123
| 20>    C        2.55752       -0.62848        0.77281
| 21>    N        2.75927       -1.24197       -0.55493
| 22>    C        1.55914       -1.99687       -0.96696
| 23>    C        1.50936       -2.21868       -2.47625
| 24>    C        3.94786       -2.11786       -0.54809
| 25>    C        5.24854       -1.32280       -0.62382
| 26>    H        2.10248        1.34770       -0.01073
| 27>    H        1.65393        1.10804        1.68354
| 28>    H        0.65953        0.40370        0.40903
| 29>    H        3.51413       -0.30983        1.20047
| 30>    H        2.12724       -1.34855        1.48039
| 31>    H        1.49501       -2.95710       -0.43955
| 32>    H        0.64870       -1.44382       -0.71250
| 33>    H        2.30784       -2.87754       -2.82813
| 34>    H        1.58398       -1.26802       -3.01500
| 35>    H        0.55685       -2.68393       -2.75156
| 36>    H        3.94598       -2.77835       -1.42175
| 37>    H        3.95292       -2.77147        0.33344
| 38>    H        5.25141       -0.65754       -1.49388
| 39>    H        6.09679       -2.00811       -0.72546
| 40>    H        5.42208       -0.71961        0.27147
| 41> *
| 42> 
| 43> 
| 44>                          ****END OF INPUT****
================================================================================

                       *****************************
                       * Geometry Optimization Run *
                       *****************************

Geometry optimization settings:
Update method            Update   .... BFGS
Choice of coordinates    CoordSys .... Z-matrix Internals
Initial Hessian          InHess   .... Almoef's Model

Convergence Tolerances:
Energy Change            TolE     ....  5.0000e-06 Eh
Max. Gradient            TolMAXG  ....  3.0000e-04 Eh/bohr
RMS Gradient             TolRMSG  ....  1.0000e-04 Eh/bohr
Max. Displacement        TolMAXD  ....  4.0000e-03 bohr
RMS Displacement         TolRMSD  ....  2.0000e-03 bohr
Strict Convergence                ....  False
------------------------------------------------------------------------------
                        ORCA OPTIMIZATION COORDINATE SETUP
------------------------------------------------------------------------------

The optimization will be done in new redundant internal coordinates
Making redundant internal coordinates   ...  (new redundants) done
Evaluating the initial hessian          ...  (Almloef) done
Evaluating the coordinates              ...  done
Calculating the B-matrix                .... done
Calculating the G-matrix                .... done
Diagonalizing the G-matrix              .... done
Small eigenvalue found = 2.660e-02
Small eigenvalue found = 2.660e-02
The first mode is                       ....   45
The number of degrees of freedom        ....   60

    -----------------------------------------------------------------
                    Redundant Internal Coordinates


    -----------------------------------------------------------------
         Definition                    Initial Value    Approx d2E/dq
    -----------------------------------------------------------------
      1. B(C   1,C   0)                  1.5263         0.378660   
      2. B(N   2,C   1)                  1.4765         0.407302   
      3. B(C   3,N   2)                  1.4765         0.407308   
      4. B(C   4,C   3)                  1.5263         0.378668   
      5. B(C   5,N   2)                  1.4765         0.407297   
      6. B(C   6,C   5)                  1.5263         0.378672   
      7. B(H   7,C   0)                  1.0952         0.353228   
      8. B(H   8,C   0)                  1.0952         0.353266   
      9. B(H   9,C   0)                  1.0934         0.355645   
     10. B(H  10,C   1)                  1.0952         0.353245   
     11. B(H  11,C   1)                  1.0974         0.350428   
     12. B(H  12,C   3)                  1.0974         0.350426   
     13. B(H  13,C   3)                  1.0952         0.353255   
     14. B(H  14,C   4)                  1.0934         0.355652   
     15. B(H  15,C   4)                  1.0953         0.353221   
     16. B(H  16,C   4)                  1.0952         0.353248   
     17. B(H  17,C   5)                  1.0952         0.353245   
     18. B(H  18,C   5)                  1.0974         0.350419   
     19. B(H  19,C   6)                  1.0953         0.353215   
     20. B(H  20,C   6)                  1.0952         0.353259   
     21. B(H  21,C   6)                  1.0934         0.355645   
     22. A(H   7,C   0,H   8)          107.7184         0.289092   
     23. A(H   8,C   0,H   9)          107.3525         0.289401   
     24. A(C   1,C   0,H   8)          109.7955         0.324019   
     25. A(C   1,C   0,H   9)          112.4565         0.324376   
     26. A(C   1,C   0,H   7)          110.9799         0.324013   
     27. A(H   7,C   0,H   9)          108.3592         0.289396   
     28. A(N   2,C   1,H  10)          110.6514         0.325960   
     29. A(C   0,C   1,H  10)          106.0223         0.324015   
     30. A(H  10,C   1,H  11)          106.3555         0.288729   
     31. A(C   0,C   1,N   2)          112.1338         0.367320   
     32. A(N   2,C   1,H  11)          111.1468         0.325531   
     33. A(C   0,C   1,H  11)          110.2534         0.323590   
     34. A(C   1,N   2,C   5)          110.6298         0.369622   
     35. A(C   1,N   2,C   3)          110.6299         0.369624   
     36. A(C   3,N   2,C   5)          110.6300         0.369623   
     37. A(N   2,C   3,C   4)          112.1334         0.367322   
     38. A(H  12,C   3,H  13)          106.3560         0.288730   
     39. A(C   4,C   3,H  13)          106.0226         0.324018   
     40. A(N   2,C   3,H  13)          110.6513         0.325963   
     41. A(C   4,C   3,H  12)          110.2532         0.323591   
     42. A(N   2,C   3,H  12)          111.1467         0.325532   
     43. A(H  15,C   4,H  16)          107.7173         0.289088   
     44. A(C   3,C   4,H  16)          109.7956         0.324017   
     45. A(H  14,C   4,H  15)          108.3594         0.289396   
     46. A(C   3,C   4,H  15)          110.9804         0.324013   
     47. A(H  14,C   4,H  16)          107.3522         0.289399   
     48. A(C   3,C   4,H  14)          112.4570         0.324378   
     49. A(N   2,C   5,H  18)          111.1466         0.325529   
     50. A(C   6,C   5,H  17)          106.0228         0.324017   
     51. A(N   2,C   5,H  17)          110.6511         0.325960   
     52. A(N   2,C   5,C   6)          112.1337         0.367321   
     53. A(H  17,C   5,H  18)          106.3558         0.288728   
     54. A(C   6,C   5,H  18)          110.2533         0.323590   
     55. A(H  19,C   6,H  21)          108.3585         0.289394   
     56. A(C   5,C   6,H  21)          112.4573         0.324378   
     57. A(H  19,C   6,H  20)          107.7171         0.289089   
     58. A(C   5,C   6,H  20)          109.7959         0.324019   
     59. A(H  20,C   6,H  21)          107.3530         0.289400   
     60. A(C   5,C   6,H  19)          110.9802         0.324013   
     61. D(H  11,C   1,C   0,H   9)    -57.7903         0.011432   
     62. D(N   2,C   1,C   0,H   8)   -173.9172         0.011432   
     63. D(H  11,C   1,C   0,H   7)   -179.3583         0.011432   
     64. D(H  10,C   1,C   0,H   9)   -172.5142         0.011432   
     65. D(H  10,C   1,C   0,H   8)    -53.0579         0.011432   
     66. D(N   2,C   1,C   0,H   9)     66.6266         0.011432   
     67. D(H  10,C   1,C   0,H   7)     65.9178         0.011432   
     68. D(N   2,C   1,C   0,H   7)    -54.9414         0.011432   
     69. D(H  11,C   1,C   0,H   8)     61.6660         0.011432   
     70. D(C   5,N   2,C   1,C   0)    159.5766         0.014155   
     71. D(C   5,N   2,C   1,H  10)     41.4298         0.014155   
     72. D(C   3,N   2,C   1,H  11)     46.4523         0.014155   
     73. D(C   3,N   2,C   1,C   0)    -77.4672         0.014155   
     74. D(C   5,N   2,C   1,H  11)    -76.5039         0.014155   
     75. D(C   3,N   2,C   1,H  10)    164.3860         0.014155   
     76. D(H  13,C   3,N   2,C   5)    164.3861         0.014155   
     77. D(H  13,C   3,N   2,C   1)     41.4300         0.014155   
     78. D(H  12,C   3,N   2,C   5)     46.4520         0.014155   
     79. D(H  12,C   3,N   2,C   1)    -76.5041         0.014155   
     80. D(C   4,C   3,N   2,C   5)    -77.4670         0.014155   
     81. D(C   4,C   3,N   2,C   1)    159.5769         0.014155   
     82. D(H  16,C   4,C   3,H  13)    -53.0579         0.011432   
     83. D(H  16,C   4,C   3,H  12)     61.6667         0.011432   
     84. D(H  16,C   4,C   3,N   2)   -173.9170         0.011432   
     85. D(H  15,C   4,C   3,H  13)     65.9168         0.011432   
     86. D(H  15,C   4,C   3,H  12)   -179.3586         0.011432   
     87. D(H  15,C   4,C   3,N   2)    -54.9423         0.011432   
     88. D(H  14,C   4,C   3,H  13)   -172.5142         0.011432   
     89. D(H  14,C   4,C   3,H  12)    -57.7896         0.011432   
     90. D(H  14,C   4,C   3,N   2)     66.6268         0.011432   
     91. D(C   6,C   5,N   2,C   1)    -77.4667         0.014155   
     92. D(H  18,C   5,N   2,C   3)    -76.5037         0.014155   
     93. D(H  18,C   5,N   2,C   1)     46.4524         0.014155   
     94. D(H  17,C   5,N   2,C   3)     41.4300         0.014155   
     95. D(H  17,C   5,N   2,C   1)    164.3861         0.014155   
     96. D(C   6,C   5,N   2,C   3)    159.5772         0.014155   
     97. D(H  21,C   6,C   5,H  18)    -57.7905         0.011433   
     98. D(H  21,C   6,C   5,H  17)   -172.5150         0.011433   
     99. D(H  21,C   6,C   5,N   2)     66.6259         0.011433   
    100. D(H  20,C   6,C   5,H  18)     61.6671         0.011433   
    101. D(H  20,C   6,C   5,H  17)    -53.0574         0.011433   
    102. D(H  20,C   6,C   5,N   2)   -173.9165         0.011433   
    103. D(H  19,C   6,C   5,H  18)   -179.3584         0.011433   
    104. D(H  19,C   6,C   5,H  17)     65.9171         0.011433   
    105. D(H  19,C   6,C   5,N   2)    -54.9420         0.011433   
    -----------------------------------------------------------------

Number of atoms                         .... 22
Number of degrees of freedom            .... 105

         *************************************************************
         *                GEOMETRY OPTIMIZATION CYCLE   1            *
         *************************************************************
---------------------------------
CARTESIAN COORDINATES (ANGSTROEM)
---------------------------------
  C      1.689640    0.625040    0.701230
  C      2.557520   -0.628480    0.772810
  N      2.759270   -1.241970   -0.554930
  C      1.559140   -1.996870   -0.966960
  C      1.509360   -2.218680   -2.476250
  C      3.947860   -2.117860   -0.548090
  C      5.248540   -1.322800   -0.623820
  H      2.102480    1.347700   -0.010730
  H      1.653930    1.108040    1.683540
  H      0.659530    0.403700    0.409030
  H      3.514130   -0.309830    1.200470
  H      2.127240   -1.348550    1.480390
  H      1.495010   -2.957100   -0.439550
  H      0.648700   -1.443820   -0.712500
  H      2.307840   -2.877540   -2.828130
  H      1.583980   -1.268020   -3.015000
  H      0.556850   -2.683930   -2.751560
  H      3.945980   -2.778350   -1.421750
  H      3.952920   -2.771470    0.333440
  H      5.251410   -0.657540   -1.493880
  H      6.096790   -2.008110   -0.725460
  H      5.422080   -0.719610    0.271470

----------------------------
CARTESIAN COORDINATES (A.U.)
----------------------------
  NO LB      ZA    FRAG     MASS         X           Y           Z
   0 C     6.0000    0    12.011    3.192957    1.181154    1.325133
   1 C     6.0000    0    12.011    4.833012   -1.187655    1.460399
   2 N     7.0000    0    14.007    5.214265   -2.346983   -1.048666
   3 C     6.0000    0    12.011    2.946348   -3.773537   -1.827290
   4 C     6.0000    0    12.011    2.852277   -4.192698   -4.679434
   5 C     6.0000    0    12.011    7.460374   -4.002175   -1.035740
   6 C     6.0000    0    12.011    9.918303   -2.499730   -1.178849
   7 H     1.0000    0     1.008    3.973111    2.546784   -0.020277
   8 H     1.0000    0     1.008    3.125475    2.093892    3.181430
   9 H     1.0000    0     1.008    1.246331    0.762882    0.772955
  10 H     1.0000    0     1.008    6.640743   -0.585494    2.268560
  11 H     1.0000    0     1.008    4.019901   -2.548390    2.797532
  12 H     1.0000    0     1.008    2.825159   -5.588109   -0.830629
  13 H     1.0000    0     1.008    1.225865   -2.728424   -1.346430
  14 H     1.0000    0     1.008    4.361186   -5.437763   -5.344391
  15 H     1.0000    0     1.008    2.993288   -2.396211   -5.697524
  16 H     1.0000    0     1.008    1.052294   -5.071893   -5.199695
  17 H     1.0000    0     1.008    7.456822   -5.250321   -2.686718
  18 H     1.0000    0     1.008    7.469936   -5.237319    0.630110
  19 H     1.0000    0     1.008    9.923727   -1.242571   -2.823024
  20 H     1.0000    0     1.008   11.521263   -3.794778   -1.370921
  21 H     1.0000    0     1.008   10.246246   -1.359866    0.513004

--------------------------------
INTERNAL COORDINATES (ANGSTROEM)
--------------------------------
 C      0   0   0     0.000000000000     0.00000000     0.00000000
 C      1   0   0     1.526319685125     0.00000000     0.00000000
 N      2   1   0     1.476470978448   112.13377428     0.00000000
 C      3   2   1     1.476466981615   110.62991017   282.53279348
 C      4   3   2     1.526313869622   112.13344455   159.57691447
 C      3   2   1     1.476474268587   110.62980262   159.57660446
 C      6   3   2     1.526310551264   112.13372454   282.53332121
 H      1   2   3     1.095244896267   110.97994843   305.05858519
 H      1   2   3     1.095215567913   109.79553653   186.08284911
 H      1   2   3     1.093388699274   112.45645741    66.62657487
 H      2   1   3     1.095232208347   106.02226854   120.85923102
 H      2   1   3     1.097411107881   110.25339755   235.58316384
 H      4   3   2     1.097413148226   111.14672050   283.49589441
 H      4   3   2     1.095223807128   110.65126344    41.43000167
 H      5   4   3     1.093382981576   112.45700365    66.62675931
 H      5   4   3     1.095250721296   110.98043758   305.05774476
 H      5   4   3     1.095229865690   109.79561090   186.08304033
 H      6   3   2     1.095231651341   110.65109474   164.38608698
 H      6   3   2     1.097418232307   111.14655288    46.45242714
 H      7   6   3     1.095254996839   110.98020509   305.05795759
 H      7   6   3     1.095220776008   109.79585452   186.08349388
 H      7   6   3     1.093388536523   112.45729033    66.62586557

---------------------------
INTERNAL COORDINATES (A.U.)
---------------------------
 C      0   0   0     0.000000000000     0.00000000     0.00000000
 C      1   0   0     2.884326197699     0.00000000     0.00000000
 N      2   1   0     2.790125793950   112.13377428     0.00000000
 C      3   2   1     2.790118241030   110.62991017   282.53279348
 C      4   3   2     2.884315207991   112.13344455   159.57691447
 C      3   2   1     2.790132011411   110.62980262   159.57660446
 C      6   3   2     2.884308937203   112.13372454   282.53332121
 H      1   2   3     2.069712903521   110.97994843   305.05858519
 H      1   2   3     2.069657480963   109.79553653   186.08284911
 H      1   2   3     2.066205199552   112.45645741    66.62657487
 H      2   1   3     2.069688926825   106.02226854   120.85923102
 H      2   1   3     2.073806450218   110.25339755   235.58316384
 H      4   3   2     2.073810305912   111.14672050   283.49589441
 H      4   3   2     2.069673050823   110.65126344    41.43000167
 H      5   4   3     2.066194394669   112.45700365    66.62675931
 H      5   4   3     2.069723911230   110.98043758   305.05774476
 H      5   4   3     2.069684499846   109.79561090   186.08304033
 H      6   3   2     2.069687874238   110.65109474   164.38608698
 H      6   3   2     2.073819913432   111.14655288    46.45242714
 H      7   6   3     2.069731990834   110.98020509   305.05795759
 H      7   6   3     2.069667322836   109.79585452   186.08349388
 H      7   6   3     2.066204891998   112.45729033    66.62586557

---------------------
BASIS SET INFORMATION
---------------------
There are 3 groups of distinct atoms

 Group   1 Type C   : 7s4p1d contracted to 3s2p1d pattern {511/31/1}
 Group   2 Type N   : 7s4p1d contracted to 3s2p1d pattern {511/31/1}
 Group   3 Type H   : 4s1p contracted to 2s1p pattern {31/1}

Atom   0C    basis set group =>   1
Atom   1C    basis set group =>   1
Atom   2N    basis set group =>   2
Atom   3C    basis set group =>   1
Atom   4C    basis set group =>   1
Atom   5C    basis set group =>   1
Atom   6C    basis set group =>   1
Atom   7H    basis set group =>   3
Atom   8H    basis set group =>   3
Atom   9H    basis set group =>   3
Atom  10H    basis set group =>   3
Atom  11H    basis set group =>   3
Atom  12H    basis set group =>   3
Atom  13H    basis set group =>   3
Atom  14H    basis set group =>   3
Atom  15H    basis set group =>   3
Atom  16H    basis set group =>   3
Atom  17H    basis set group =>   3
Atom  18H    basis set group =>   3
Atom  19H    basis set group =>   3
Atom  20H    basis set group =>   3
Atom  21H    basis set group =>   3
---------------------------------
AUXILIARY/J BASIS SET INFORMATION
---------------------------------
There are 3 groups of distinct atoms

 Group   1 Type C   : 12s5p4d2f1g contracted to 6s4p3d1f1g pattern {711111/2111/211/2/1}
 Group   2 Type N   : 12s5p4d2f1g contracted to 6s4p3d1f1g pattern {711111/2111/211/2/1}
 Group   3 Type H   : 5s2p1d contracted to 3s1p1d pattern {311/2/1}

Atom   0C    basis set group =>   1
Atom   1C    basis set group =>   1
Atom   2N    basis set group =>   2
Atom   3C    basis set group =>   1
Atom   4C    basis set group =>   1
Atom   5C    basis set group =>   1
Atom   6C    basis set group =>   1
Atom   7H    basis set group =>   3
Atom   8H    basis set group =>   3
Atom   9H    basis set group =>   3
Atom  10H    basis set group =>   3
Atom  11H    basis set group =>   3
Atom  12H    basis set group =>   3
Atom  13H    basis set group =>   3
Atom  14H    basis set group =>   3
Atom  15H    basis set group =>   3
Atom  16H    basis set group =>   3
Atom  17H    basis set group =>   3
Atom  18H    basis set group =>   3
Atom  19H    basis set group =>   3
Atom  20H    basis set group =>   3
Atom  21H    basis set group =>   3
------------------------------------------------------------------------------
                           ORCA GTO INTEGRAL CALCULATION
                           -- RI-GTO INTEGRALS CHOSEN --
------------------------------------------------------------------------------
------------------------------------------------------------------------------
                   ___                                                        
                  /   \      - P O W E R E D   B Y -                         
                 /     \                                                     
                 |  |  |   _    _      __       _____    __    __             
                 |  |  |  | |  | |    /  \     |  _  \  |  |  /  |          
                  \  \/   | |  | |   /    \    | | | |  |  | /  /          
                 / \  \   | |__| |  /  /\  \   | |_| |  |  |/  /          
                |  |  |   |  __  | /  /__\  \  |    /   |      \           
                |  |  |   | |  | | |   __   |  |    \   |  |\   \          
                \     /   | |  | | |  |  |  |  | |\  \  |  | \   \       
                 \___/    |_|  |_| |__|  |__|  |_| \__\ |__|  \__/        
                                                                              
                      - O R C A' S   B I G   F R I E N D -                    
                                      &                                       
                       - I N T E G R A L  F E E D E R -                       
                                                                              
 v1 FN, 2020, v2 2021                                                         
------------------------------------------------------------------------------


Reading SHARK input file Et3N_DFT.SHARKINP.tmp ... SHARK General Contraction Test:  Segmented basis detected
   -> Pre-screening matrix *NOT* found on disk - recalculating with NShells=87
   -> Leaving CheckPreScreeningMatrix
ok
----------------------
SHARK INTEGRAL PACKAGE
----------------------

Number of atoms                             ...     22
Number of basis functions                   ...    173
Number of shells                            ...     87
Maximum angular momentum                    ...      2
Integral batch strategy                     ... SHARK/LIBINT Hybrid
RI-J (if used) integral strategy            ... SPLIT-RIJ (Revised 2003 algorithm where possible)
Printlevel                                  ...      2
Contraction scheme used                     ... SEGMENTED contraction
Coulomb Range Separation                    ... NOT USED
Exchange Range Separation                   ... NOT USED
Finite Nucleus Model                        ... NOT USED
Auxiliary Coulomb fitting basis             ... AVAILABLE
   # of basis functions in Aux-J            ...    508
   # of shells in Aux-J                     ...    180
   Maximum angular momentum in Aux-J        ...      4
Auxiliary J/K fitting basis                 ... NOT available
Auxiliary Correlation fitting basis         ... NOT available
Auxiliary 'external' fitting basis          ... NOT available
Integral threshold                          ...     2.500000e-11
Primitive cut-off                           ...     2.500000e-12
Primitive pair pre-selection threshold      ...     2.500000e-12

Calculating pre-screening integrals         ... done (  0.1 sec) Dimension = 87
Organizing shell pair data                  ... done (  0.1 sec)
Shell pair information
Total number of shell pairs                 ...      3828
Shell pairs after pre-screening             ...      3657
Total number of primitive shell pairs       ...     12856
Primitive shell pairs kept                  ...      9166
          la=0 lb=0:   1284 shell pairs
          la=1 lb=0:   1404 shell pairs
          la=1 lb=1:    402 shell pairs
          la=2 lb=0:    345 shell pairs
          la=2 lb=1:    194 shell pairs
          la=2 lb=2:     28 shell pairs

Calculating one electron integrals          ... done (  0.1 sec)
Calculating RI/J V-Matrix + Cholesky decomp.... done (  0.1 sec)
Calculating Nuclear repulsion               ... done (  0.0 sec) ENN=    335.608392658717 Eh

SHARK setup successfully completed in   0.9 seconds

Maximum memory used throughout the entire GTOINT-calculation: 22.0 MB
-------------------------------------------------------------------------------
                                 ORCA SCF
-------------------------------------------------------------------------------

------------
SCF SETTINGS
------------
Hamiltonian:
 Density Functional     Method          .... DFT(GTOs)
 Exchange Functional    Exchange        .... B88
   X-Alpha parameter    XAlpha          ....  0.666667
   Becke's b parameter  XBeta           ....  0.004200
 Correlation Functional Correlation     .... LYP
 LDA part of GGA corr.  LDAOpt          .... VWN-5
 Gradients option       PostSCFGGA      .... off
 Hybrid DFT is turned on
   Fraction HF Exchange ScalHFX         ....  0.200000
   Scaling of DF-GGA-X  ScalDFX         ....  0.720000
   Scaling of DF-GGA-C  ScalDFC         ....  0.810000
   Scaling of DF-LDA-C  ScalLDAC        ....  1.000000
   Perturbative correction              ....  0.000000
   Density functional embedding theory  .... OFF
   NL short-range parameter             ....  4.800000
 RI-approximation to the Coulomb term is turned on
   Number of AuxJ basis functions       .... 508
   RIJ-COSX (HFX calculated with COS-X)).... on


General Settings:
 Integral files         IntName         .... Et3N_DFT
 Hartree-Fock type      HFTyp           .... RHF
 Total Charge           Charge          ....    0
 Multiplicity           Mult            ....    1
 Number of Electrons    NEL             ....   58
 Basis Dimension        Dim             ....  173
 Nuclear Repulsion      ENuc            ....    335.6083926587 Eh

Convergence Acceleration:
 DIIS                   CNVDIIS         .... on
   Start iteration      DIISMaxIt       ....    12
   Startup error        DIISStart       ....  0.200000
   # of expansion vecs  DIISMaxEq       ....     5
   Bias factor          DIISBfac        ....   1.050
   Max. coefficient     DIISMaxC        ....  10.000
 Trust-Rad. Augm. Hess. CNVTRAH         .... auto
   Auto Start mean grad. ratio tolernc. ....  1.125000
   Auto Start start iteration           ....    20
   Auto Start num. interpolation iter.  ....    10
   Max. Number of Micro iterations      ....    16
   Max. Number of Macro iterations      .... Maxiter - #DIIS iter
   Number of Davidson start vectors     ....     2
   Converg. threshold I  (grad. norm)   ....   1.000e-05
   Converg. threshold II (energy diff.) ....   1.000e-08
   Grad. Scal. Fac. for Micro threshold ....   0.100
   Minimum threshold for Micro iter.    ....   0.010
   NR start threshold (gradient norm)   ....   0.001
   Initial trust radius                 ....   0.400
   Minimum AH scaling param. (alpha)    ....   1.000
   Maximum AH scaling param. (alpha)    .... 1000.000
   Orbital update algorithm             .... Taylor
   White noise on init. David. guess    .... on
   Maximum white noise                  ....   0.010
   Quad. conv. algorithm                .... NR
 SOSCF                  CNVSOSCF        .... on
   Start iteration      SOSCFMaxIt      ....   150
   Startup grad/error   SOSCFStart      ....  0.003300
 Level Shifting         CNVShift        .... on
   Level shift para.    LevelShift      ....    0.2500
   Turn off err/grad.   ShiftErr        ....    0.0010
 Zerner damping         CNVZerner       .... off
 Static damping         CNVDamp         .... on
   Fraction old density DampFac         ....    0.7000
   Max. Damping (<1)    DampMax         ....    0.9800
   Min. Damping (>=0)   DampMin         ....    0.0000
   Turn off err/grad.   DampErr         ....    0.1000
 Fernandez-Rico         CNVRico         .... off

SCF Procedure:
 Maximum # iterations   MaxIter         ....   125
 SCF integral mode      SCFMode         .... Direct
   Integral package                     .... SHARK and LIBINT hybrid scheme
 Reset frequency        DirectResetFreq ....    20
 Integral Threshold     Thresh          ....  2.500e-11 Eh
 Primitive CutOff       TCut            ....  2.500e-12 Eh

Convergence Tolerance:
 Convergence Check Mode ConvCheckMode   .... Total+1el-Energy
 Convergence forced     ConvForced      .... 0
 Energy Change          TolE            ....  1.000e-08 Eh
 1-El. energy change                    ....  1.000e-05 Eh
 Orbital Gradient       TolG            ....  1.000e-05
 Orbital Rotation angle TolX            ....  1.000e-05
 DIIS Error             TolErr          ....  5.000e-07


Diagonalization of the overlap matrix:
Smallest eigenvalue                        ... 2.297e-03
Time for diagonalization                   ...    0.005 sec
Threshold for overlap eigenvalues          ... 1.000e-08
Number of eigenvalues below threshold      ... 0
Time for construction of square roots      ...    0.005 sec
Total time needed                          ...    0.010 sec

SHARK General Contraction Test:  Segmented basis detected
   -> Pre-screening matrix found on disk - Trying to read with NShells=87
   -> Passing Pre-screening matrix on to SHARK ...ok
   -> Leaving CheckPreScreeningMatrix
----------------------
SHARK INTEGRAL PACKAGE
----------------------

Number of atoms                             ...     22
Number of basis functions                   ...    173
Number of shells                            ...     87
Maximum angular momentum                    ...      2
Integral batch strategy                     ... SHARK/LIBINT Hybrid
RI-J (if used) integral strategy            ... SPLIT-RIJ (Revised 2003 algorithm where possible)
Printlevel                                  ...      2
Contraction scheme used                     ... SEGMENTED contraction
Coulomb Range Separation                    ... NOT USED
Exchange Range Separation                   ... NOT USED
Finite Nucleus Model                        ... NOT USED
Auxiliary Coulomb fitting basis             ... AVAILABLE
   # of basis functions in Aux-J            ...    508
   # of shells in Aux-J                     ...    180
   Maximum angular momentum in Aux-J        ...      4
Auxiliary J/K fitting basis                 ... NOT available
Auxiliary Correlation fitting basis         ... NOT available
Auxiliary 'external' fitting basis          ... NOT available
Integral threshold                          ...     2.500000e-11
Primitive cut-off                           ...     2.500000e-12
Primitive pair pre-selection threshold      ...     2.500000e-12

Time for model grid setup =    0.895 sec

------------------------------
INITIAL GUESS: MODEL POTENTIAL
------------------------------
Loading Hartree-Fock densities                     ... done
Calculating cut-offs                               ... done
Initializing the effective Hamiltonian             ... done
Setting up the integral package (SHARK)            ... done
Starting the Coulomb interaction                   ...     -> Generating integrals - 
    -> L=0 0 :     0.275 sec done=    190374 skipped=      2766 prim-skipped=         0
    -> L=1 0 :     0.215 sec done=    206184 skipped=      3988 prim-skipped=         0
    -> L=1 1 :     0.103 sec done=     57582 skipped=      1236 prim-skipped=         0
    -> L=2 0 :     0.110 sec done=     51184 skipped=       524 prim-skipped=         0
    -> L=2 1 :     0.083 sec done=     28028 skipped=       654 prim-skipped=         0
    -> L=2 2 :     0.005 sec done=      4169 skipped=        66 prim-skipped=         0
done (   0.8 sec)
Reading the grid                                   ... done
Mapping shells                                     ... done
Starting the XC term evaluation                    ... done (   1.2 sec)
  promolecular density results
     # of electrons  =     57.992398343
     EX              =    -41.879351838
     EC              =     -1.857097536
     EX+EC           =    -43.736449374
Transforming the Hamiltonian                       ... done (   0.0 sec)
Diagonalizing the Hamiltonian                      ... done (   0.0 sec)
Back transforming the eigenvectors                 ... done (   0.0 sec)
Now organizing SCF variables                       ... done
                      ------------------
                      INITIAL GUESS DONE (   2.9 sec)
                      ------------------
-------------------
DFT GRID GENERATION
-------------------

General Integration Accuracy     IntAcc      ... 4.388
Radial Grid Type                 RadialGrid  ... OptM3 with GC (2021)
Angular Grid (max. ang.)         AngularGrid ... 4 (Lebedev-302)
Angular grid pruning method      GridPruning ... 4 (adaptive)
Weight generation scheme         WeightScheme... Becke
Basis function cutoff            BFCut       ... 1.0000e-11
Integration weight cutoff        WCut        ... 1.0000e-14
Angular grids for H and He will be reduced by one unit
Partially contracted basis set               ... off
Rotationally invariant grid construction     ... off

Total number of grid points                  ...    89984
Total number of batches                      ...     1416
Average number of points per batch           ...       63
Average number of grid points per atom       ...     4090
Time for grid setup =    3.609 sec

--------------------
COSX GRID GENERATION
--------------------

GRIDX 1
-------
General Integration Accuracy     IntAcc      ... 3.816
Radial Grid Type                 RadialGrid  ... OptM3 with GC (2021)
Angular Grid (max. ang.)         AngularGrid ... 1 (Lebedev-50)
Angular grid pruning method      GridPruning ... 4 (adaptive)
Weight generation scheme         WeightScheme... Becke
Basis function cutoff            BFCut       ... 1.0000e-11
Integration weight cutoff        WCut        ... 1.0000e-14
Angular grids for H and He will be reduced by one unit
Partially contracted basis set               ... on
Rotationally invariant grid construction     ... off

Total number of grid points                  ...    11561
Total number of batches                      ...      195
Average number of points per batch           ...       59
Average number of grid points per atom       ...      526
UseSFitting                                  ... on

GRIDX 2
-------
General Integration Accuracy     IntAcc      ... 4.020
Radial Grid Type                 RadialGrid  ... OptM3 with GC (2021)
Angular Grid (max. ang.)         AngularGrid ... 2 (Lebedev-110)
Angular grid pruning method      GridPruning ... 4 (adaptive)
Weight generation scheme         WeightScheme... Becke
Basis function cutoff            BFCut       ... 1.0000e-11
Integration weight cutoff        WCut        ... 1.0000e-14
Angular grids for H and He will be reduced by one unit
Partially contracted basis set               ... on
Rotationally invariant grid construction     ... off

Total number of grid points                  ...    23726
Total number of batches                      ...      381
Average number of points per batch           ...       62
Average number of grid points per atom       ...     1078
UseSFitting                                  ... on

GRIDX 3
-------
General Integration Accuracy     IntAcc      ... 4.338
Radial Grid Type                 RadialGrid  ... OptM3 with GC (2021)
Angular Grid (max. ang.)         AngularGrid ... 3 (Lebedev-194)
Angular grid pruning method      GridPruning ... 4 (adaptive)
Weight generation scheme         WeightScheme... Becke
Basis function cutoff            BFCut       ... 1.0000e-11
Integration weight cutoff        WCut        ... 1.0000e-14
Angular grids for H and He will be reduced by one unit
Partially contracted basis set               ... on
Rotationally invariant grid construction     ... off

Total number of grid points                  ...    51657
Total number of batches                      ...      818
Average number of points per batch           ...       63
Average number of grid points per atom       ...     2348
UseSFitting                                  ... on

Time for X-Grid setup             =    4.376 sec


--------------------
CPCM SOLVATION MODEL
--------------------
CPCM parameters:
  Epsilon                                         ...      69.0000
  Refrac                                          ...       1.3400
  Rsolv                                           ...       1.3000
  Surface type                                    ... GAUSSIAN VDW
  Epsilon function type                           ...         CPCM
Radii:
 Radius for C  used is    3.8550 Bohr (=   2.0400 Ang.)
 Radius for N  used is    3.5149 Bohr (=   1.8600 Ang.)
 Radius for H  used is    2.4944 Bohr (=   1.3200 Ang.)
Calculating surface                               ...        done! (  0.0s)
GEPOL surface points                              ...         1209
GEPOL Volume                                      ...    1061.9503
GEPOL Surface-area                                ...     617.7821
Calculating surface distance matrix               ...        done! (  0.1s)
Performing Cholesky decomposition & store         ...        done! (  0.2s)
Overall time for CPCM initialization              ...                 0.3s
--------------
SCF ITERATIONS
--------------
               ***  Starting incremental Fock matrix formation  ***
==>> SHARK/AuxDens: NDens=1 Thresh =     2.500000e-11 TCut=    2.500000e-12 Lmax=2 LmaxAux=4
    -> Making Hermite density - ok     0.073 sec
    -> Making Aux-basis density - (lmax=2)
    -> L=0 0:    0.122 sec done=    220377 ( 95.4%) skipped=     10734 
    -> L=1 0:    0.285 sec done=    232961 ( 92.2%) skipped=     19759 
    -> L=1 1:    0.100 sec done=     63863 ( 90.3%) skipped=      6877 
    -> L=2 0:    0.092 sec done=     57982 ( 94.2%) skipped=      3578 
    -> L=2 1:    0.018 sec done=     29678 ( 86.3%) skipped=      4702 
    -> L=2 2:    0.004 sec done=      4500 ( 89.3%) skipped=       540 
    -> Aux basis density formed in    0.6 sec
    -> Solving linear equations - ok (   0.0 sec)
        Auxbasis Hermite Density:
        P|s>                     ...  0.000
        P|p>                     ...  0.000
        P|d>                     ...  0.000
        P|f>                     ...  0.000
        P|g>                     ...  0.000
        Building the Coulomb matrix: 
        J|ss>                          ... done (  0.1 sec) ndone=  1096101 nskipped1=    22128 nskipped2=    41691
        J|ps>                          ... done (  0.2 sec) ndone=   927920 nskipped1=    13599 nskipped2=    40128
        J|pp>                          ... done (  0.1 sec) ndone=   215150 nskipped1=     2689 nskipped2=     4452
        J|ds>                          ... done (  0.0 sec) ndone=   165213 nskipped1=     2111 nskipped2=     8782
        J|dp>                          ... done (  0.1 sec) ndone=    74204 nskipped1=     1368 nskipped2=     2068
        J|dd>                          ... done (  0.0 sec) ndone=     7858 nskipped1=      106 nskipped2=       84
        Coulomb matrix built in   0.5 sec

        Total time for Split-RI-J                ...    1.281 sec
          (0) Prelude                            ...    0.000 sec
          (1) Hermite density                    ...    0.000 sec
          (2) Aux basis density                  ...    0.000 sec (inner=  0.0)
          (3) Linear equation solution           ...    0.000 sec
          (4) J-Matrix construction              ...    0.505 sec (inner=  0.5)
        ---------------------------------------------------------

                         ----------------------------
                         !        ITERATION     0   !
                         ----------------------------
   Total Energy        :    -291.745696703810 Eh
   Energy Change       :    -291.745696703810 Eh
   MAX-DP              :       0.079051558369
   RMS-DP              :       0.002370690156
   Actual Damping      :       0.7000
   Actual Level Shift  :       0.2500 Eh
   Int. Num. El.       :    58.00006677 (UP=   29.00003338 DN=   29.00003338)
   Exchange            :   -34.70929028
   Correlation         :    -2.22874702

==>> SHARK/AuxDens: NDens=1 Thresh =     2.500000e-11 TCut=    2.500000e-12 Lmax=2 LmaxAux=4
    -> Making Hermite density - ok     0.009 sec
    -> Making Aux-basis density - (lmax=2)
    -> L=0 0:    0.192 sec done=    214983 ( 93.0%) skipped=     16128 
    -> L=1 0:    0.211 sec done=    226932 ( 89.8%) skipped=     25788 
    -> L=1 1:    0.095 sec done=     60976 ( 86.2%) skipped=      9764 
    -> L=2 0:    0.088 sec done=     55447 ( 90.1%) skipped=      6113 
    -> L=2 1:    0.015 sec done=     27809 ( 80.9%) skipped=      6571 
    -> L=2 2:    0.002 sec done=      4033 ( 80.0%) skipped=      1007 
    -> Aux basis density formed in    0.6 sec
    -> Solving linear equations - ok (   0.1 sec)
        Auxbasis Hermite Density:
        P|s>                     ...  0.000
        P|p>                     ...  0.000
        P|d>                     ...  0.000
        P|f>                     ...  0.000
        P|g>                     ...  0.000
        Building the Coulomb matrix: 
        J|ss>                          ... done (  0.2 sec) ndone=  1082553 nskipped1=    34428 nskipped2=    32679
        J|ps>                          ... done (  0.2 sec) ndone=   914964 nskipped1=    24390 nskipped2=    34494
        J|pp>                          ... done (  0.1 sec) ndone=   212567 nskipped1=     4587 nskipped2=     3633
        J|ds>                          ... done (  0.1 sec) ndone=   161599 nskipped1=     6440 nskipped2=     4701
        J|dp>                          ... done (  0.0 sec) ndone=    71916 nskipped1=     3063 nskipped2=     1491
        J|dd>                          ... done (  0.0 sec) ndone=     7335 nskipped1=      441 nskipped2=       24
        Coulomb matrix built in   0.6 sec

        Total time for Split-RI-J                ...    1.304 sec
          (0) Prelude                            ...    0.000 sec
          (1) Hermite density                    ...    0.000 sec
          (2) Aux basis density                  ...    0.000 sec (inner=  0.0)
          (3) Linear equation solution           ...    0.000 sec
          (4) J-Matrix construction              ...    0.615 sec (inner=  0.6)
        ---------------------------------------------------------

                         ----------------------------
                         !        ITERATION     1   !
                         ----------------------------
   Total Energy        :    -291.859092874715 Eh
   Energy Change       :      -0.113396170905 Eh
   MAX-DP              :       0.048828035436
   RMS-DP              :       0.001737539641
   Actual Damping      :       0.7000
   Actual Level Shift  :       0.2500 Eh
   Int. Num. El.       :    58.00007435 (UP=   29.00003718 DN=   29.00003718)
   Exchange            :   -34.41124781
   Correlation         :    -2.21516441

==>> SHARK/AuxDens: NDens=1 Thresh =     2.500000e-11 TCut=    2.500000e-12 Lmax=2 LmaxAux=4
    -> Making Hermite density - ok     0.008 sec
    -> Making Aux-basis density - (lmax=2)
    -> L=0 0:    0.280 sec done=    215526 ( 93.3%) skipped=     15585 
    -> L=1 0:    0.209 sec done=    225593 ( 89.3%) skipped=     27127 
    -> L=1 1:    0.100 sec done=     60694 ( 85.8%) skipped=     10046 
    -> L=2 0:    0.093 sec done=     55000 ( 89.3%) skipped=      6560 
    -> L=2 1:    0.016 sec done=     27611 ( 80.3%) skipped=      6769 
    -> L=2 2:    0.003 sec done=      3992 ( 79.2%) skipped=      1048 
    -> Aux basis density formed in    0.7 sec
    -> Solving linear equations - ok (   0.0 sec)
        Auxbasis Hermite Density:
        P|s>                     ...  0.000
        P|p>                     ...  0.000
        P|d>                     ...  0.000
        P|f>                     ...  0.000
        P|g>                     ...  0.000
        Building the Coulomb matrix: 
        J|ss>                          ... done (  0.2 sec) ndone=  1080330 nskipped1=    35196 nskipped2=    31572
        J|ps>                          ... done (  0.2 sec) ndone=   913171 nskipped1=    25091 nskipped2=    33487
        J|pp>                          ... done (  0.1 sec) ndone=   212193 nskipped1=     4661 nskipped2=     3592
        J|ds>                          ... done (  0.1 sec) ndone=   161318 nskipped1=     6666 nskipped2=     4176
        J|dp>                          ... done (  0.0 sec) ndone=    71413 nskipped1=     3308 nskipped2=     1422
        J|dd>                          ... done (  0.0 sec) ndone=     7284 nskipped1=      461 nskipped2=        4
        Coulomb matrix built in   0.6 sec

        Total time for Split-RI-J                ...    1.304 sec
          (0) Prelude                            ...    0.000 sec
          (1) Hermite density                    ...    0.000 sec
          (2) Aux basis density                  ...    0.000 sec (inner=  0.0)
          (3) Linear equation solution           ...    0.000 sec
          (4) J-Matrix construction              ...    0.590 sec (inner=  0.6)
        ---------------------------------------------------------
                               ***Turning on DIIS***

                         ----------------------------
                         !        ITERATION     2   !
                         ----------------------------
   Total Energy        :    -291.906590681099 Eh
   Energy Change       :      -0.047497806384 Eh
   MAX-DP              :       0.068597904072
   RMS-DP              :       0.002920921052
   Actual Damping      :       0.0000
   Actual Level Shift  :       0.2500 Eh
   Int. Num. El.       :    58.00007862 (UP=   29.00003931 DN=   29.00003931)
   Exchange            :   -34.20589922
   Correlation         :    -2.20548030
   DIIS-Error          :       0.035486398285

==>> SHARK/AuxDens: NDens=1 Thresh =     2.500000e-11 TCut=    2.500000e-12 Lmax=2 LmaxAux=4
    -> Making Hermite density - ok     0.075 sec
    -> Making Aux-basis density - (lmax=2)
    -> L=0 0:    0.123 sec done=    216140 ( 93.5%) skipped=     14971 
    -> L=1 0:    0.289 sec done=    227807 ( 90.1%) skipped=     24913 
    -> L=1 1:    0.098 sec done=     61234 ( 86.6%) skipped=      9506 
    -> L=2 0:    0.102 sec done=     56327 ( 91.5%) skipped=      5233 
    -> L=2 1:    0.016 sec done=     27783 ( 80.8%) skipped=      6597 
    -> L=2 2:    0.074 sec done=      4126 ( 81.9%) skipped=       914 
    -> Aux basis density formed in    0.7 sec
    -> Solving linear equations - ok (   0.0 sec)
        Auxbasis Hermite Density:
        P|s>                     ... -0.000
        P|p>                     ... -0.000
        P|d>                     ... -0.000
        P|f>                     ... -0.000
        P|g>                     ... -0.000
        Building the Coulomb matrix: 
        J|ss>                          ... done (  0.1 sec) ndone=  1081482 nskipped1=    33270 nskipped2=    31071
        J|ps>                          ... done (  0.2 sec) ndone=   913876 nskipped1=    23400 nskipped2=    32851
        J|pp>                          ... done (  0.1 sec) ndone=   212249 nskipped1=     4403 nskipped2=     3534
        J|ds>                          ... done (  0.1 sec) ndone=   161492 nskipped1=     6206 nskipped2=     4379
        J|dp>                          ... done (  0.0 sec) ndone=    71575 nskipped1=     2974 nskipped2=     1383
        J|dd>                          ... done (  0.0 sec) ndone=     7326 nskipped1=      424 nskipped2=        4
        Coulomb matrix built in   0.5 sec

        Total time for Split-RI-J                ...    1.292 sec
          (0) Prelude                            ...    0.000 sec
          (1) Hermite density                    ...    0.000 sec
          (2) Aux basis density                  ...    0.000 sec (inner=  0.0)
          (3) Linear equation solution           ...    0.000 sec
          (4) J-Matrix construction              ...    0.510 sec (inner=  0.5)
        ---------------------------------------------------------

                         ----------------------------
                         !        ITERATION     3   !
                         ----------------------------
   Total Energy        :    -291.971380065870 Eh
   Energy Change       :      -0.064789384770 Eh
   MAX-DP              :       0.034637804908
   RMS-DP              :       0.001219378676
   Actual Damping      :       0.0000
   Actual Level Shift  :       0.2500 Eh
   Int. Num. El.       :    58.00008346 (UP=   29.00004173 DN=   29.00004173)
   Exchange            :   -33.89344864
   Correlation         :    -2.19061713
   DIIS-Error          :       0.049618355237
   DIIS coefficients:
      0.58703   0.41297

==>> SHARK/AuxDens: NDens=1 Thresh =     2.500000e-11 TCut=    2.500000e-12 Lmax=2 LmaxAux=4
    -> Making Hermite density - ok     0.009 sec
    -> Making Aux-basis density - (lmax=2)
    -> L=0 0:    0.202 sec done=    215827 ( 93.4%) skipped=     15284 
    -> L=1 0:    0.297 sec done=    223473 ( 88.4%) skipped=     29247 
    -> L=1 1:    0.098 sec done=     60474 ( 85.5%) skipped=     10266 
    -> L=2 0:    0.091 sec done=     54016 ( 87.7%) skipped=      7544 
    -> L=2 1:    0.016 sec done=     27489 ( 80.0%) skipped=      6891 
    -> L=2 2:    0.004 sec done=      3970 ( 78.8%) skipped=      1070 
    -> Aux basis density formed in    0.7 sec
    -> Solving linear equations - ok (   0.0 sec)
        Auxbasis Hermite Density:
        P|s>                     ...  0.000
        P|p>                     ...  0.000
        P|d>                     ...  0.000
        P|f>                     ...  0.000
        P|g>                     ...  0.000
        Building the Coulomb matrix: 
        J|ss>                          ... done (  0.3 sec) ndone=  1078962 nskipped1=    37350 nskipped2=    31239
        J|ps>                          ... done (  0.2 sec) ndone=   911332 nskipped1=    27315 nskipped2=    33230
        J|pp>                          ... done (  0.0 sec) ndone=   211904 nskipped1=     5038 nskipped2=     3610
        J|ds>                          ... done (  0.1 sec) ndone=   161185 nskipped1=     6925 nskipped2=     4206
        J|dp>                          ... done (  0.0 sec) ndone=    71181 nskipped1=     3591 nskipped2=     1446
        J|dd>                          ... done (  0.0 sec) ndone=     7284 nskipped1=      473 nskipped2=        4
        Coulomb matrix built in   0.6 sec

        Total time for Split-RI-J                ...    1.323 sec
          (0) Prelude                            ...    0.000 sec
          (1) Hermite density                    ...    0.000 sec
          (2) Aux basis density                  ...    0.000 sec (inner=  0.0)
          (3) Linear equation solution           ...    0.000 sec
          (4) J-Matrix construction              ...    0.601 sec (inner=  0.6)
        ---------------------------------------------------------

                         ----------------------------
                         !        ITERATION     4   !
                         ----------------------------
   Total Energy        :    -291.991233166106 Eh
   Energy Change       :      -0.019853100237 Eh
   MAX-DP              :       0.005901963870
   RMS-DP              :       0.000317544560
   Actual Damping      :       0.0000
   Actual Level Shift  :       0.2500 Eh
   Int. Num. El.       :    58.00008037 (UP=   29.00004019 DN=   29.00004019)
   Exchange            :   -34.02318128
   Correlation         :    -2.19760304
   DIIS-Error          :       0.010320687331
   DIIS coefficients:
      0.17274  -0.07253   0.89980

==>> SHARK/AuxDens: NDens=1 Thresh =     2.500000e-11 TCut=    2.500000e-12 Lmax=2 LmaxAux=4
    -> Making Hermite density - ok     0.008 sec
    -> Making Aux-basis density - (lmax=2)
    -> L=0 0:    0.191 sec done=    211914 ( 91.7%) skipped=     19197 
    -> L=1 0:    0.291 sec done=    219050 ( 86.7%) skipped=     33670 
    -> L=1 1:    0.098 sec done=     59271 ( 83.8%) skipped=     11469 
    -> L=2 0:    0.021 sec done=     53237 ( 86.5%) skipped=      8323 
    -> L=2 1:    0.087 sec done=     26961 ( 78.4%) skipped=      7419 
    -> L=2 2:    0.003 sec done=      3960 ( 78.6%) skipped=      1080 
    -> Aux basis density formed in    0.7 sec
    -> Solving linear equations - ok (   0.1 sec)
        Auxbasis Hermite Density:
        P|s>                     ...  0.000
        P|p>                     ...  0.000
        P|d>                     ...  0.000
        P|f>                     ...  0.000
        P|g>                     ...  0.000
        Building the Coulomb matrix: 
        J|ss>                          ... done (  0.1 sec) ndone=  1066974 nskipped1=    46821 nskipped2=    25719
        J|ps>                          ... done (  0.3 sec) ndone=   898191 nskipped1=    36980 nskipped2=    28803
        J|pp>                          ... done (  0.1 sec) ndone=   208535 nskipped1=     7094 nskipped2=     3367
        J|ds>                          ... done (  0.0 sec) ndone=   158846 nskipped1=     8800 nskipped2=     3650
        J|dp>                          ... done (  0.0 sec) ndone=    68746 nskipped1=     4934 nskipped2=     1289
        J|dd>                          ... done (  0.1 sec) ndone=     7154 nskipped1=      572 nskipped2=        0
        Coulomb matrix built in   0.6 sec

        Total time for Split-RI-J                ...    1.382 sec
          (0) Prelude                            ...    0.000 sec
          (1) Hermite density                    ...    0.000 sec
          (2) Aux basis density                  ...    0.000 sec (inner=  0.0)
          (3) Linear equation solution           ...    0.000 sec
          (4) J-Matrix construction              ...    0.597 sec (inner=  0.6)
        ---------------------------------------------------------

                         ----------------------------
                         !        ITERATION     5   !
                         ----------------------------
   Total Energy        :    -291.992158961726 Eh
   Energy Change       :      -0.000925795620 Eh
   MAX-DP              :       0.004826252672
   RMS-DP              :       0.000157167779
   Actual Damping      :       0.0000
   Actual Level Shift  :       0.2500 Eh
   Int. Num. El.       :    58.00008019 (UP=   29.00004010 DN=   29.00004010)
   Exchange            :   -34.04797974
   Correlation         :    -2.19896884
   DIIS-Error          :       0.004680637959
   DIIS coefficients:
      0.04661  -0.05181   0.19021   0.81500

==>> SHARK/AuxDens: NDens=1 Thresh =     2.500000e-11 TCut=    2.500000e-12 Lmax=2 LmaxAux=4
    -> Making Hermite density - ok     0.008 sec
    -> Making Aux-basis density - (lmax=2)
    -> L=0 0:    0.283 sec done=    209489 ( 90.6%) skipped=     21622 
    -> L=1 0:    0.391 sec done=    215712 ( 85.4%) skipped=     37008 
    -> L=1 1:    0.107 sec done=     57782 ( 81.7%) skipped=     12958 
    -> L=2 0:    0.100 sec done=     52563 ( 85.4%) skipped=      8997 
    -> L=2 1:    0.096 sec done=     26805 ( 78.0%) skipped=      7575 
    -> L=2 2:    0.003 sec done=      3960 ( 78.6%) skipped=      1080 
    -> Aux basis density formed in    1.0 sec
    -> Solving linear equations - ok (   0.0 sec)
        Auxbasis Hermite Density:
        P|s>                     ...  0.000
        P|p>                     ...  0.000
        P|d>                     ...  0.000
        P|f>                     ...  0.000
        P|g>                     ...  0.000
        Building the Coulomb matrix: 
        J|ss>                          ... done (  0.2 sec) ndone=  1051659 nskipped1=    56475 nskipped2=    20493
        J|ps>                          ... done (  0.3 sec) ndone=   881688 nskipped1=    47424 nskipped2=    23924
        J|pp>                          ... done (  0.1 sec) ndone=   204489 nskipped1=     9423 nskipped2=     2566
        J|ds>                          ... done (  0.1 sec) ndone=   154473 nskipped1=    10967 nskipped2=     3057
        J|dp>                          ... done (  0.0 sec) ndone=    67180 nskipped1=     5853 nskipped2=     1122
        J|dd>                          ... done (  0.1 sec) ndone=     6959 nskipped1=      662 nskipped2=        0
        Coulomb matrix built in   0.8 sec

        Total time for Split-RI-J                ...    1.781 sec
          (0) Prelude                            ...    0.000 sec
          (1) Hermite density                    ...    0.000 sec
          (2) Aux basis density                  ...    0.000 sec (inner=  0.0)
          (3) Linear equation solution           ...    0.000 sec
          (4) J-Matrix construction              ...    0.788 sec (inner=  0.8)
        ---------------------------------------------------------
                      *** Initiating the SOSCF procedure ***
                           *** Shutting down DIIS ***
                      *** Re-Reading the Fockian *** 
                      *** Removing any level shift *** 

                         ----------------------------
                         !        ITERATION     6   !
                         ----------------------------
   Total Energy        :    -291.992259782332 Eh
   Energy Change       :      -0.000100820606 Eh
   MAX-DP              :       0.001293333078
   RMS-DP              :       0.000050193128
   Orbital gradient    :       0.000343807699
   Orbital Rotation    :       0.000343807699
   Actual Damping      :       0.0000
   Int. Num. El.       :    58.00008011 (UP=   29.00004005 DN=   29.00004005)
   Exchange            :   -34.05784739
   Correlation         :    -2.19941751

               *** Restarting incremental Fock matrix formation ***
==>> SHARK/AuxDens: NDens=1 Thresh =     2.500000e-11 TCut=    2.500000e-12 Lmax=2 LmaxAux=4
    -> Making Hermite density - ok     0.008 sec
    -> Making Aux-basis density - (lmax=2)
    -> L=0 0:    0.479 sec done=    221277 ( 95.7%) skipped=      9834 
    -> L=1 0:    0.402 sec done=    232779 ( 92.1%) skipped=     19941 
    -> L=1 1:    0.106 sec done=     63666 ( 90.0%) skipped=      7074 
    -> L=2 0:    0.098 sec done=     58014 ( 94.2%) skipped=      3546 
    -> L=2 1:    0.096 sec done=     29585 ( 86.1%) skipped=      4795 
    -> L=2 2:    0.008 sec done=      4500 ( 89.3%) skipped=       540 
    -> Aux basis density formed in    1.2 sec
    -> Solving linear equations - ok (   0.0 sec)
        Auxbasis Hermite Density:
        P|s>                     ...  0.000
        P|p>                     ...  0.000
        P|d>                     ...  0.000
        P|f>                     ...  0.000
        P|g>                     ...  0.000
        Building the Coulomb matrix: 
        J|ss>                          ... done (  0.2 sec) ndone=  1095867 nskipped1=    22356 nskipped2=    41667
        J|ps>                          ... done (  0.3 sec) ndone=   927680 nskipped1=    13761 nskipped2=    40212
        J|pp>                          ... done (  0.2 sec) ndone=   215109 nskipped1=     2725 nskipped2=     4451
        J|ds>                          ... done (  0.1 sec) ndone=   165018 nskipped1=     2347 nskipped2=     8614
        J|dp>                          ... done (  0.0 sec) ndone=    74166 nskipped1=     1403 nskipped2=     2068
        J|dd>                          ... done (  0.0 sec) ndone=     7825 nskipped1=      129 nskipped2=       84
        Coulomb matrix built in   0.8 sec

        Total time for Split-RI-J                ...    2.098 sec
          (0) Prelude                            ...    0.000 sec
          (1) Hermite density                    ...    0.000 sec
          (2) Aux basis density                  ...    0.000 sec (inner=  0.0)
          (3) Linear equation solution           ...    0.000 sec
          (4) J-Matrix construction              ...    0.817 sec (inner=  0.8)
        ---------------------------------------------------------

                         ----------------------------
                         !        ITERATION     7   !
                         ----------------------------
   Total Energy        :    -291.992267819303 Eh
   Energy Change       :      -0.000008036972 Eh
   MAX-DP              :       0.000646175778
   RMS-DP              :       0.000034365721
   Orbital gradient    :       0.000189569128
   Orbital Rotation    :       0.000679410942
   Actual Damping      :       0.0000
   Int. Num. El.       :    58.00008017 (UP=   29.00004009 DN=   29.00004009)
   Exchange            :   -34.05933009
   Correlation         :    -2.19952052

==>> SHARK/AuxDens: NDens=1 Thresh =     2.500000e-11 TCut=    2.500000e-12 Lmax=2 LmaxAux=4
    -> Making Hermite density - ok     0.089 sec
    -> Making Aux-basis density - (lmax=2)
    -> L=0 0:    0.203 sec done=    205223 ( 88.8%) skipped=     25888 
    -> L=1 0:    0.313 sec done=    209433 ( 82.9%) skipped=     43287 
    -> L=1 1:    0.184 sec done=     56327 ( 79.6%) skipped=     14413 
    -> L=2 0:    0.098 sec done=     49786 ( 80.9%) skipped=     11774 
    -> L=2 1:    0.016 sec done=     25426 ( 74.0%) skipped=      8954 
    -> L=2 2:    0.003 sec done=      3757 ( 74.5%) skipped=      1283 
    -> Aux basis density formed in    0.8 sec
    -> Solving linear equations - ok (   0.0 sec)
        Auxbasis Hermite Density:
        P|s>                     ... -0.000
        P|p>                     ... -0.000
        P|d>                     ... -0.000
        P|f>                     ... -0.000
        P|g>                     ... -0.000
        Building the Coulomb matrix: 
        J|ss>                          ... done (  0.1 sec) ndone=  1022001 nskipped1=    74430 nskipped2=    16593
        J|ps>                          ... done (  0.3 sec) ndone=   851429 nskipped1=    67637 nskipped2=    19212
        J|pp>                          ... done (  0.0 sec) ndone=   199347 nskipped1=    13226 nskipped2=     1828
        J|ds>                          ... done (  0.1 sec) ndone=   147626 nskipped1=    15910 nskipped2=     2467
        J|dp>                          ... done (  0.0 sec) ndone=    65061 nskipped1=     7209 nskipped2=      834
        J|dd>                          ... done (  0.0 sec) ndone=     6456 nskipped1=      965 nskipped2=        0
        Coulomb matrix built in   0.5 sec

        Total time for Split-RI-J                ...    1.505 sec
          (0) Prelude                            ...    0.000 sec
          (1) Hermite density                    ...    0.000 sec
          (2) Aux basis density                  ...    0.000 sec (inner=  0.0)
          (3) Linear equation solution           ...    0.000 sec
          (4) J-Matrix construction              ...    0.514 sec (inner=  0.5)
        ---------------------------------------------------------

                         ----------------------------
                         !        ITERATION     8   !
                         ----------------------------
   Total Energy        :    -291.992268481560 Eh
   Energy Change       :      -0.000000662256 Eh
   MAX-DP              :       0.000247566432
   RMS-DP              :       0.000008659400
   Orbital gradient    :       0.000055334343
   Orbital Rotation    :       0.000165350563
   Actual Damping      :       0.0000
   Int. Num. El.       :    58.00008026 (UP=   29.00004013 DN=   29.00004013)
   Exchange            :   -34.06025222
   Correlation         :    -2.19957796

==>> SHARK/AuxDens: NDens=1 Thresh =     2.500000e-11 TCut=    2.500000e-12 Lmax=2 LmaxAux=4
    -> Making Hermite density - ok     0.089 sec
    -> Making Aux-basis density - (lmax=2)
    -> L=0 0:    0.204 sec done=    199660 ( 86.4%) skipped=     31451 
    -> L=1 0:    0.397 sec done=    202622 ( 80.2%) skipped=     50098 
    -> L=1 1:    0.111 sec done=     54936 ( 77.7%) skipped=     15804 
    -> L=2 0:    0.098 sec done=     48382 ( 78.6%) skipped=     13178 
    -> L=2 1:    0.102 sec done=     23976 ( 69.7%) skipped=     10404 
    -> L=2 2:    0.084 sec done=      3570 ( 70.8%) skipped=      1470 
    -> Aux basis density formed in    1.0 sec
    -> Solving linear equations - ok (   0.0 sec)
        Auxbasis Hermite Density:
        P|s>                     ...  0.000
        P|p>                     ...  0.000
        P|d>                     ...  0.000
        P|f>                     ...  0.000
        P|g>                     ...  0.000
        Building the Coulomb matrix: 
        J|ss>                          ... done (  0.3 sec) ndone=  1027161 nskipped1=    80958 nskipped2=    18333
        J|ps>                          ... done (  0.5 sec) ndone=   852049 nskipped1=    72084 nskipped2=    21931
        J|pp>                          ... done (  0.2 sec) ndone=   199383 nskipped1=    13760 nskipped2=     2124
        J|ds>                          ... done (  0.1 sec) ndone=   147743 nskipped1=    16765 nskipped2=     2678
        J|dp>                          ... done (  0.1 sec) ndone=    65043 nskipped1=     7685 nskipped2=     1142
        J|dd>                          ... done (  0.0 sec) ndone=     6454 nskipped1=      990 nskipped2=        0
        Coulomb matrix built in   1.2 sec

        Total time for Split-RI-J                ...    2.303 sec
          (0) Prelude                            ...    0.000 sec
          (1) Hermite density                    ...    0.000 sec
          (2) Aux basis density                  ...    0.000 sec (inner=  0.0)
          (3) Linear equation solution           ...    0.000 sec
          (4) J-Matrix construction              ...    1.212 sec (inner=  1.2)
        ---------------------------------------------------------

                         ----------------------------
                         !        ITERATION     9   !
                         ----------------------------
   Total Energy        :    -291.992268675109 Eh
   Energy Change       :      -0.000000193549 Eh
   MAX-DP              :       0.000109173364
   RMS-DP              :       0.000006067717
   Orbital gradient    :       0.000028483997
   Orbital Rotation    :       0.000117108191
   Actual Damping      :       0.0000
   Int. Num. El.       :    58.00008029 (UP=   29.00004015 DN=   29.00004015)
   Exchange            :   -34.05979448
   Correlation         :    -2.19955099

==>> SHARK/AuxDens: NDens=1 Thresh =     2.500000e-11 TCut=    2.500000e-12 Lmax=2 LmaxAux=4
    -> Making Hermite density - ok     0.005 sec
    -> Making Aux-basis density - (lmax=2)
    -> L=0 0:    0.113 sec done=    197695 ( 85.5%) skipped=     33416 
    -> L=1 0:    0.375 sec done=    199715 ( 79.0%) skipped=     53005 
    -> L=1 1:    0.107 sec done=     54060 ( 76.4%) skipped=     16680 
    -> L=2 0:    0.017 sec done=     47768 ( 77.6%) skipped=     13792 
    -> L=2 1:    0.085 sec done=     23474 ( 68.3%) skipped=     10906 
    -> L=2 2:    0.002 sec done=      3443 ( 68.3%) skipped=      1597 
    -> Aux basis density formed in    0.7 sec
    -> Solving linear equations - ok (   0.0 sec)
        Auxbasis Hermite Density:
        P|s>                     ...  0.000
        P|p>                     ...  0.000
        P|d>                     ...  0.000
        P|f>                     ...  0.000
        P|g>                     ...  0.000
        Building the Coulomb matrix: 
        J|ss>                          ... done (  0.2 sec) ndone=   996591 nskipped1=   101649 nskipped2=    16299
        J|ps>                          ... done (  0.2 sec) ndone=   832881 nskipped1=    86772 nskipped2=    19030
        J|pp>                          ... done (  0.0 sec) ndone=   196261 nskipped1=    16257 nskipped2=     1701
        J|ds>                          ... done (  0.1 sec) ndone=   142257 nskipped1=    20664 nskipped2=     2495
        J|dp>                          ... done (  0.0 sec) ndone=    63558 nskipped1=     8654 nskipped2=      946
        J|dd>                          ... done (  0.0 sec) ndone=     6340 nskipped1=     1076 nskipped2=        0
        Coulomb matrix built in   0.5 sec

        Total time for Split-RI-J                ...    1.207 sec
          (0) Prelude                            ...    0.000 sec
          (1) Hermite density                    ...    0.000 sec
          (2) Aux basis density                  ...    0.000 sec (inner=  0.0)
          (3) Linear equation solution           ...    0.000 sec
          (4) J-Matrix construction              ...    0.497 sec (inner=  0.5)
        ---------------------------------------------------------

                         ----------------------------
                         !        ITERATION    10   !
                         ----------------------------
   Total Energy        :    -291.992268713674 Eh
   Energy Change       :      -0.000000038565 Eh
   MAX-DP              :       0.000052654022
   RMS-DP              :       0.000001178968
   Orbital gradient    :       0.000016845261
   Orbital Rotation    :       0.000011978142
   Actual Damping      :       0.0000
   Int. Num. El.       :    58.00008027 (UP=   29.00004014 DN=   29.00004014)
   Exchange            :   -34.05976504
   Correlation         :    -2.19955120

==>> SHARK/AuxDens: NDens=1 Thresh =     2.500000e-11 TCut=    2.500000e-12 Lmax=2 LmaxAux=4
    -> Making Hermite density - ok     0.008 sec
    -> Making Aux-basis density - (lmax=2)
    -> L=0 0:    0.201 sec done=    188313 ( 81.5%) skipped=     42798 
    -> L=1 0:    0.284 sec done=    188519 ( 74.6%) skipped=     64201 
    -> L=1 1:    0.024 sec done=     51626 ( 73.0%) skipped=     19114 
    -> L=2 0:    0.088 sec done=     46420 ( 75.4%) skipped=     15140 
    -> L=2 1:    0.087 sec done=     22929 ( 66.7%) skipped=     11451 
    -> L=2 2:    0.003 sec done=      3417 ( 67.8%) skipped=      1623 
    -> Aux basis density formed in    0.7 sec
    -> Solving linear equations - ok (   0.0 sec)
        Auxbasis Hermite Density:
        P|s>                     ... -0.001
        P|p>                     ... -0.001
        P|d>                     ... -0.001
        P|f>                     ... -0.001
        P|g>                     ... -0.001
        Building the Coulomb matrix: 
        J|ss>                          ... done (  0.1 sec) ndone=   967539 nskipped1=   120087 nskipped2=    13818
        J|ps>                          ... done (  0.2 sec) ndone=   816091 nskipped1=    99479 nskipped2=    16456
        J|pp>                          ... done (  0.1 sec) ndone=   193593 nskipped1=    18118 nskipped2=     1176
        J|ds>                          ... done (  0.1 sec) ndone=   136948 nskipped1=    23726 nskipped2=     2149
        J|dp>                          ... done (  0.0 sec) ndone=    62433 nskipped1=     9396 nskipped2=      578
        J|dd>                          ... done (  0.0 sec) ndone=     6304 nskipped1=     1112 nskipped2=        0
        Coulomb matrix built in   0.5 sec

        Total time for Split-RI-J                ...    1.205 sec
          (0) Prelude                            ...    0.000 sec
          (1) Hermite density                    ...    0.000 sec
[...]
 8 H  pz              0.4       0.3       1.9       1.9       5.4       2.0
 8 H  px              0.2       0.0       0.0       0.2       0.0       0.0
 8 H  py              0.1       0.1       0.4       0.2       0.5       0.7
 9 H  s               4.4       0.0       0.1       0.2       0.8       0.2
 9 H  pz              1.6       0.0       0.1       0.2       0.1       0.0
 9 H  px              6.2       0.0       0.1       0.2       0.8       0.3
 9 H  py              0.6       0.0       0.1       0.2       0.3       0.0
10 H  s               0.1       0.0       0.5       0.8       0.6       0.5
10 H  pz              0.1       0.2       0.2       0.1       0.0       0.6
10 H  px              0.0       0.0       0.7       1.0       0.7       0.3
10 H  py              0.4       0.1       0.1       0.2       0.6       0.2
11 H  s               1.3       0.6       0.2       1.8       0.0       0.4
11 H  pz              1.2       0.4       0.3       2.4       0.2       0.2
11 H  px              0.9       0.3       0.4       0.4       0.2       0.3
11 H  py              0.5       0.3       0.1       0.6       0.0       0.1
12 H  s               0.0       1.9       0.2       1.7       0.5       0.0
12 H  pz              0.0       0.2       0.2       0.3       0.1       0.1
12 H  px              0.0       0.0       0.1       0.3       0.1       0.2
12 H  py              0.0       3.5       0.5       2.5       0.6       0.1
13 H  s               0.0       0.1       0.5       0.6       1.2       0.1
13 H  pz              0.0       0.2       0.0       0.0       0.0       0.0
13 H  px              0.0       0.4       0.7       0.7       1.9       0.1
13 H  py              0.0       0.0       0.2       0.4       0.2       0.4
14 H  s               1.1       3.3       0.1       0.2       0.0       0.9
14 H  pz              0.2       0.3       0.0       0.0       0.1       0.0
14 H  px              1.3       4.7       0.2       0.5       0.1       0.8
14 H  py              0.6       1.2       0.0       0.1       0.0       0.6
15 H  s               0.6       1.0       2.4       0.4       0.0       0.8
15 H  pz              0.3       0.0       0.4       0.6       0.1       0.1
15 H  py              0.8       2.2       3.9       0.4       0.0       1.1
16 H  s               0.4       0.1       1.4       1.2       0.0       4.9
16 H  pz              0.1       0.0       0.1       0.1       0.0       0.3
16 H  px              0.5       0.0       2.1       1.1       0.0       6.3
16 H  py              0.2       0.2       0.3       0.9       0.1       1.9
17 H  s               0.1       0.1       0.5       0.7       0.0       1.2
17 H  pz              0.1       0.0       0.6       0.9       0.0       1.6
17 H  px              0.3       0.1       0.0       0.0       0.1       0.2
17 H  py              0.1       0.0       0.4       0.3       0.2       0.4
18 H  s               1.5       0.4       0.2       1.8       0.2       0.3
18 H  pz              2.1       0.6       0.2       1.5       0.4       0.0
18 H  px              0.1       0.1       0.5       0.3       0.0       0.0
18 H  py              0.7       0.2       0.0       1.5       0.0       0.5
19 H  s               0.3       1.4       2.5       0.3       0.6       0.2
19 H  pz              0.4       1.8       3.2       0.4       0.8       0.3
19 H  px              0.4       0.1       0.1       0.2       0.1       0.0
19 H  py              0.0       0.6       1.1       0.3       0.2       0.0
20 H  s               0.0       0.4       1.3       0.9       4.2       1.1
20 H  px              0.0       0.7       1.3       1.0       4.1       0.9
20 H  py              0.0       0.2       1.1       0.5       3.0       1.1
21 H  s               1.1       3.4       0.1       0.2       0.7       0.3
21 H  pz              1.1       3.8       0.1       0.2       0.7       0.5
21 H  py              0.9       2.5       0.1       0.1       0.3       0.1

                    168       169       170       171       172   
                   3.03172   3.10910   3.10958   3.21599   3.21625
                   0.00000   0.00000   0.00000   0.00000   0.00000
                  --------  --------  --------  --------  --------
 0 C  pz              0.4       0.2       0.0       0.1       0.2
 0 C  px              1.1       0.6       0.6       0.0       0.0
 0 C  py              0.7       0.3       0.0       0.0       0.0
 0 C  dz2             2.6       0.2       0.0       0.1       0.9
 0 C  dxz             3.9       3.4       0.8       0.1       0.1
 0 C  dyz             0.0       0.7       0.5       2.0       0.2
 0 C  dx2y2           2.9       0.5       1.1       0.0       0.0
 0 C  dxy             0.0       0.2       0.4       0.1       0.2
 1 C  s               0.0       0.0       0.2       0.1       0.4
 1 C  pz              0.0       0.5       0.1       0.0       2.8
 1 C  px              0.9       1.0       1.0       0.1       0.4
 1 C  py              0.3       0.5       0.0       0.0       0.7
 1 C  dz2             1.9       0.7       0.4       0.3       5.0
 1 C  dxz             1.8       5.5       3.9       1.6       3.0
 1 C  dyz             1.3       7.5       1.9       0.8       4.1
 1 C  dx2y2           0.0       0.0       0.6       0.1       2.6
 1 C  dxy             0.1       0.1       2.2       0.0       1.1
 2 N  s               0.1       0.0       0.0       0.0       0.0
 2 N  pz              0.1       0.7       0.0       0.0       2.2
 2 N  px              0.0       0.0       1.2       3.9       0.1
 2 N  py              0.1       0.5       0.0       0.1       1.7
 2 N  dz2             0.1       3.3       0.3       3.7      24.9
 2 N  dxz             0.1       1.8       9.2       4.1       2.0
 2 N  dyz             2.0       0.8       1.8       1.1       6.1
 2 N  dx2y2           0.5       4.5       0.3       0.2       8.6
 2 N  dxy             0.1       3.5       2.3      34.2       1.8
 3 C  s               0.0       0.2       0.1       0.2       0.3
 3 C  pz              0.0       0.0       0.1       0.0       0.1
 3 C  px              0.6       0.2       0.0       2.8       1.0
 3 C  py              0.7       2.2       0.5       0.0       0.2
 3 C  dz2             0.1       2.0       1.1       0.0       0.1
 3 C  dxz             0.1       0.0       0.5       2.0       4.1
 3 C  dyz             0.4       0.8       1.7       0.0       1.3
 3 C  dx2y2           1.7      11.9       2.3       0.7       0.2
 3 C  dxy             3.0       2.1       0.4       8.0       2.2
 4 C  pz              0.0       0.1       0.1       0.0       0.0
 4 C  px              1.8       0.2       0.1       0.3       0.0
 4 C  py              0.5       1.0       0.3       0.1       0.0
 4 C  dz2             0.0       0.5       0.5       0.0       0.1
 4 C  dxz             2.2       0.5       0.2       0.0       1.3
 4 C  dyz             1.1       0.9       0.2       0.0       0.8
 4 C  dx2y2           0.8       2.5       1.1       0.3       0.2
 4 C  dxy             5.4       1.2       0.2       1.1       0.0
 5 C  s               0.0       0.1       0.1       0.5       0.1
 5 C  pz              1.2       0.0       2.6       0.3       0.3
 5 C  px              0.0       0.1       0.2       1.3       0.1
 5 C  py              0.1       0.1       0.1       1.5       0.6
 5 C  dz2             0.2       0.6       0.3       2.8       2.2
 5 C  dxz             0.9       0.0       2.6       0.0       0.4
 5 C  dyz             3.7       0.1      15.7       1.2       0.4
 5 C  dx2y2           0.2       1.6       0.0       5.3       0.1
 5 C  dxy             0.3       1.4       0.6       5.1       1.0
 6 C  pz              1.5       0.0       1.3       0.0       0.0
 6 C  px              0.2       0.1       0.1       0.0       0.1
 6 C  py              0.5       0.1       0.0       0.0       0.2
 6 C  dz2             0.5       0.4       0.1       0.1       0.8
 6 C  dyz             6.2       0.1       6.3       0.3       0.0
 6 C  dx2y2           0.5       0.0       0.3       1.3       0.2
 6 C  dxy             2.2       0.4       0.0       0.1       0.8
 7 H  s               0.5       1.1       0.2       0.1       0.0
 7 H  pz              0.3       0.3       0.1       0.1       0.0
 7 H  px              0.1       0.1       0.1       0.1       0.1
 7 H  py              0.5       1.4       0.2       0.0       0.0
 8 H  s               0.8       0.0       0.0       0.3       0.2
 8 H  pz              1.0       0.0       0.0       0.4       0.1
 8 H  px              0.0       0.1       0.0       0.0       0.1
 8 H  py              0.3       0.0       0.0       0.0       0.4
 9 H  s               2.3       0.6       0.5       0.0       0.1
 9 H  pz              0.2       0.1       0.1       0.0       0.1
 9 H  px              3.2       1.1       0.7       0.0       0.1
10 H  s               1.1       1.0       1.6       0.0       2.0
10 H  pz              0.1       0.0       0.2       0.3       0.7
10 H  px              1.7       1.5       2.4       0.0       1.8
10 H  py              0.0       0.0       0.0       0.0       0.4
11 H  s               0.6       2.6       0.4       0.0       0.0
11 H  pz              0.2       1.2       0.3       0.0       0.0
11 H  px              0.0       0.4       0.0       0.1       0.0
11 H  py              0.8       2.2       0.3       0.0       0.0
12 H  s               0.6       1.8       1.1       0.0       0.0
12 H  pz              0.6       0.9       0.6       0.0       0.0
12 H  py              0.5       1.8       1.1       0.0       0.1
13 H  s               1.1       2.5       0.1       1.7       0.4
13 H  pz              0.7       0.9       0.1       0.1       0.0
13 H  px              0.7       1.6       0.0       2.4       0.2
13 H  py              0.5       1.5       0.1       0.2       0.4
14 H  s               2.3       1.0       0.1       0.1       0.0
14 H  pz              0.6       0.3       0.0       0.1       0.1
14 H  px              1.7       0.8       0.1       0.1       0.0
14 H  py              1.3       0.6       0.1       0.0       0.0
15 H  s               0.5       0.8       0.5       0.0       0.1
15 H  pz              0.3       0.5       0.5       0.0       0.0
15 H  py              0.6       0.8       0.3       0.0       0.2
16 H  s               0.8       0.0       0.0       0.4       0.1
16 H  pz              0.1       0.0       0.0       0.2       0.2
16 H  px              1.1       0.0       0.0       0.3       0.1
16 H  py              0.1       0.1       0.0       0.1       0.0
17 H  s               1.1       0.3       2.2       1.4       0.7
17 H  pz              0.7       0.4       1.8       1.3       0.3
17 H  px              0.3       0.0       0.6       0.0       0.1
17 H  py              0.8       0.3       1.1       0.5       0.9
18 H  s               0.6       0.1       2.9       0.0       0.0
18 H  pz              0.6       0.1       2.7       0.1       0.0
18 H  px              0.1       0.0       0.1       0.0       0.0
18 H  py              0.4       0.0       1.5       0.0       0.1
19 H  s               0.5       0.0       1.3       0.0       0.1
19 H  pz              0.6       0.0       1.3       0.1       0.1
19 H  px              0.0       0.0       0.2       0.0       0.0
19 H  py              0.3       0.0       0.6       0.0       0.1
20 H  s               0.8       0.0       0.0       0.0       0.4
20 H  px              0.8       0.0       0.1       0.2       0.4
20 H  py              0.5       0.0       0.0       0.1       0.2
21 H  s               2.3       0.1       1.0       0.1       0.1
21 H  pz              2.1       0.0       1.2       0.0       0.0
21 H  px              0.2       0.0       0.1       0.1       0.0
21 H  py              1.2       0.0       0.6       0.1       0.1


                      *****************************
                      * MAYER POPULATION ANALYSIS *
                      *****************************

  NA   - Mulliken gross atomic population
  ZA   - Total nuclear charge
  QA   - Mulliken gross atomic charge
  VA   - Mayer's total valence
  BVA  - Mayer's bonded valence
  FA   - Mayer's free valence

  ATOM       NA         ZA         QA         VA         BVA        FA
  0 C      5.9911     6.0000     0.0089     4.0000     4.0000     0.0000
  1 C      5.8939     6.0000     0.1061     4.0667     4.0667     0.0000
  2 N      7.3974     7.0000    -0.3974     3.0615     3.0615     0.0000
  3 C      5.8932     6.0000     0.1068     4.0660     4.0660     0.0000
  4 C      5.9915     6.0000     0.0085     3.9997     3.9997    -0.0000
  5 C      5.8942     6.0000     0.1058     4.0659     4.0659    -0.0000
  6 C      5.9913     6.0000     0.0087     3.9996     3.9996     0.0000
  7 H      0.9927     1.0000     0.0073     0.9992     0.9992     0.0000
  8 H      0.9879     1.0000     0.0121     0.9881     0.9881     0.0000
  9 H      0.9848     1.0000     0.0152     0.9951     0.9951    -0.0000
 10 H      0.9924     1.0000     0.0076     0.9872     0.9872     0.0000
 11 H      1.0248     1.0000    -0.0248     0.9841     0.9841    -0.0000
 12 H      1.0248     1.0000    -0.0248     0.9840     0.9840    -0.0000
 13 H      0.9924     1.0000     0.0076     0.9873     0.9873    -0.0000
 14 H      0.9847     1.0000     0.0153     0.9950     0.9950     0.0000
 15 H      0.9929     1.0000     0.0071     0.9995     0.9995    -0.0000
 16 H      0.9879     1.0000     0.0121     0.9881     0.9881    -0.0000
 17 H      0.9922     1.0000     0.0078     0.9873     0.9873    -0.0000
 18 H      1.0243     1.0000    -0.0243     0.9841     0.9841    -0.0000
 19 H      0.9929     1.0000     0.0071     0.9996     0.9996     0.0000
 20 H      0.9879     1.0000     0.0121     0.9881     0.9881    -0.0000
 21 H      0.9848     1.0000     0.0152     0.9950     0.9950    -0.0000

  Mayer bond orders larger than 0.100000
B(  0-C ,  1-C ) :   1.1129 B(  0-C ,  7-H ) :   0.9649 B(  0-C ,  8-H ) :   0.9585 
B(  0-C ,  9-H ) :   0.9627 B(  1-C ,  2-N ) :   0.9891 B(  1-C , 10-H ) :   0.9458 
B(  1-C , 11-H ) :   0.9233 B(  2-N ,  3-C ) :   0.9891 B(  2-N ,  5-C ) :   0.9887 
B(  3-C ,  4-C ) :   1.1127 B(  3-C , 12-H ) :   0.9233 B(  3-C , 13-H ) :   0.9458 
B(  4-C , 14-H ) :   0.9627 B(  4-C , 15-H ) :   0.9649 B(  4-C , 16-H ) :   0.9586 
B(  5-C ,  6-C ) :   1.1128 B(  5-C , 17-H ) :   0.9459 B(  5-C , 18-H ) :   0.9233 
B(  6-C , 19-H ) :   0.9649 B(  6-C , 20-H ) :   0.9586 B(  6-C , 21-H ) :   0.9628 


-------
TIMINGS
-------

Total SCF time: 0 days 0 hours 2 min 3 sec 

Total time                  ....     123.495 sec
Sum of individual times     ....     122.478 sec  ( 99.2%)

Fock matrix formation       ....     114.683 sec  ( 92.9%)
  Split-RI-J                ....       4.845 sec  (  4.2% of F)
  Chain of spheres X        ....      87.505 sec  ( 76.3% of F)
  XC integration            ....      13.836 sec  ( 12.1% of F)
    Basis function eval.    ....       6.042 sec  ( 43.7% of XC)
    Density eval.           ....       3.563 sec  ( 25.8% of XC)
    XC-Functional eval.     ....       0.769 sec  (  5.6% of XC)
    XC-Potential eval.      ....       2.986 sec  ( 21.6% of XC)
Diagonalization             ....       0.006 sec  (  0.0%)
Density matrix formation    ....       0.003 sec  (  0.0%)
Population analysis         ....       0.116 sec  (  0.1%)
Initial guess               ....       0.072 sec  (  0.1%)
Orbital Transformation      ....       0.000 sec  (  0.0%)
Orbital Orthonormalization  ....       0.004 sec  (  0.0%)
DIIS solution               ....       0.001 sec  (  0.0%)
SOSCF solution              ....       0.090 sec  (  0.1%)
Grid generation             ....       7.506 sec  (  6.1%)

Maximum memory used throughout the entire SCF-calculation: 71.7 MB

-------------------------   --------------------
FINAL SINGLE POINT ENERGY      -291.995014410079
-------------------------   --------------------

                                *** OPTIMIZATION RUN DONE ***

                            ***************************************
                            *     ORCA property calculations      *
                            ***************************************

                                    ---------------------
                                    Active property flags
                                    ---------------------
   (+) Dipole Moment


------------------------------------------------------------------------------
                       ORCA ELECTRIC PROPERTIES CALCULATION
------------------------------------------------------------------------------

Dipole Moment Calculation                       ... on
Quadrupole Moment Calculation                   ... off
Polarizability Calculation                      ... off
GBWName                                         ... Et3N_DFT.gbw
Electron density                                ... Et3N_DFT.scfp
SHARK General Contraction Test:  Segmented basis detected
   -> Pre-screening matrix found on disk - Trying to read with NShells=87
   -> Passing Pre-screening matrix on to SHARK ...ok
   -> Leaving CheckPreScreeningMatrix
----------------------
SHARK INTEGRAL PACKAGE
----------------------

Number of atoms                             ...     22
Number of basis functions                   ...    173
Number of shells                            ...     87
Maximum angular momentum                    ...      2
Integral batch strategy                     ... SHARK/LIBINT Hybrid
RI-J (if used) integral strategy            ... SPLIT-RIJ (Revised 2003 algorithm where possible)
Printlevel                                  ...      2
Contraction scheme used                     ... SEGMENTED contraction
Coulomb Range Separation                    ... NOT USED
Exchange Range Separation                   ... NOT USED
Finite Nucleus Model                        ... NOT USED
Auxiliary Coulomb fitting basis             ... AVAILABLE
   # of basis functions in Aux-J            ...    508
   # of shells in Aux-J                     ...    180
   Maximum angular momentum in Aux-J        ...      4
Auxiliary J/K fitting basis                 ... NOT available
Auxiliary Correlation fitting basis         ... NOT available
Auxiliary 'external' fitting basis          ... NOT available
Integral threshold                          ...     2.500000e-11
Primitive cut-off                           ...     2.500000e-12
Primitive pair pre-selection threshold      ...     2.500000e-12

The origin for moment calculation is the CENTER OF MASS  = ( 5.201027, -2.410820 -0.990881)

-------------
DIPOLE MOMENT
-------------
                                X             Y             Z
Electronic contribution:     -0.09093      -0.43433       0.39350
Nuclear contribution   :      0.04083       0.20257      -0.18235
                        -----------------------------------------
Total Dipole Moment    :     -0.05010      -0.23175       0.21115
                        -----------------------------------------
Magnitude (a.u.)       :      0.31750
Magnitude (Debye)      :      0.80701



--------------------
Rotational spectrum 
--------------------
 
Rotational constants in cm-1:     0.076264     0.076183     0.043638 
Rotational constants in MHz :  2286.349753  2283.918699  1308.243490 

 Dipole components along the rotational axes: 
x,y,z [a.u.] :    -0.001602    -0.000539     0.317493 
x,y,z [Debye]:    -0.004072    -0.001369     0.807002 

 

Timings for individual modules:

Sum of individual times         ...     2550.622 sec (=  42.510 min)
GTO integral calculation        ...        6.546 sec (=   0.109 min)   0.3 %
SCF iterations                  ...     1900.649 sec (=  31.677 min)  74.5 %
SCF Gradient evaluation         ...      642.152 sec (=  10.703 min)  25.2 %
Geometry relaxation             ...        1.275 sec (=   0.021 min)   0.0 %
                             ****ORCA TERMINATED NORMALLY****
TOTAL RUN TIME: 0 days 0 hours 42 minutes 34 seconds 809 msec
