
                                 *****************
                                 * O   R   C   A *
                                 *****************

                                            #,                                       
                                            ###                                      
                                            ####                                     
                                            #####                                    
                                            ######                                   
                                           ########,                                 
                                     ,,################,,,,,                         
                               ,,#################################,,                 
                          ,,##########################################,,             
                       ,#########################################, ''#####,          
                    ,#############################################,,   '####,        
                  ,##################################################,,,,####,       
                ,###########''''           ''''###############################       
              ,#####''   ,,,,##########,,,,          '''####'''          '####       
            ,##' ,,,,###########################,,,                        '##       
           ' ,,###''''                  '''############,,,                           
         ,,##''                                '''############,,,,        ,,,,,,###''
      ,#''                                            '''#######################'''  
     '                                                          ''''####''''         
             ,#######,   #######,   ,#######,      ##                                
            ,#'     '#,  ##    ##  ,#'     '#,    #''#        ######   ,####,        
            ##       ##  ##   ,#'  ##            #'  '#       #        #'  '#        
            ##       ##  #######   ##           ,######,      #####,   #    #        
            '#,     ,#'  ##    ##  '#,     ,#' ,#      #,         ##   #,  ,#        
             '#######'   ##     ##  '#######'  #'      '#     #####' # '####'        



                  #######################################################
                  #                        -***-                        #
                  #          Department of theory and spectroscopy      #
                  #    Directorship and core code : Frank Neese         #
                  #        Max Planck Institute fuer Kohlenforschung    #
                  #                Kaiser Wilhelm Platz 1               #
                  #                 D-45470 Muelheim/Ruhr               #
                  #                      Germany                        #
                  #                                                     #
                  #                  All rights reserved                #
                  #                        -***-                        #
                  #######################################################


                         Program Version 5.0.4 -  RELEASE  -


 With contributions from (in alphabetic order):
   Daniel Aravena         : Magnetic Suceptibility
   Michael Atanasov       : Ab Initio Ligand Field Theory (pilot matlab implementation)
   Alexander A. Auer      : GIAO ZORA, VPT2 properties, NMR spectrum
   Ute Becker             : Parallelization
   Giovanni Bistoni       : ED, misc. LED, open-shell LED, HFLD
   Martin Brehm           : Molecular dynamics
   Dmytro Bykov           : SCF Hessian
   Vijay G. Chilkuri      : MRCI spin determinant printing, contributions to CSF-ICE
   Dipayan Datta          : RHF DLPNO-CCSD density
   Achintya Kumar Dutta   : EOM-CC, STEOM-CC
   Dmitry Ganyushin       : Spin-Orbit,Spin-Spin,Magnetic field MRCI
   Miquel Garcia          : C-PCM and meta-GGA Hessian, CC/C-PCM, Gaussian charge scheme
   Yang Guo               : DLPNO-NEVPT2, F12-NEVPT2, CIM, IAO-localization
   Andreas Hansen         : Spin unrestricted coupled pair/coupled cluster methods
   Benjamin Helmich-Paris : MC-RPA, TRAH-SCF, COSX integrals
   Lee Huntington         : MR-EOM, pCC
   Robert Izsak           : Overlap fitted RIJCOSX, COSX-SCS-MP3, EOM
   Marcus Kettner         : VPT2
   Christian Kollmar      : KDIIS, OOCD, Brueckner-CCSD(T), CCSD density, CASPT2, CASPT2-K
   Simone Kossmann        : Meta GGA functionals, TD-DFT gradient, OOMP2, MP2 Hessian
   Martin Krupicka        : Initial AUTO-CI
   Lucas Lang             : DCDCAS
   Marvin Lechner         : AUTO-CI (C++ implementation), FIC-MRCC
   Dagmar Lenk            : GEPOL surface, SMD
   Dimitrios Liakos       : Extrapolation schemes; Compound Job, initial MDCI parallelization
   Dimitrios Manganas     : Further ROCIS development; embedding schemes
   Dimitrios Pantazis     : SARC Basis sets
   Anastasios Papadopoulos: AUTO-CI, single reference methods and gradients
   Taras Petrenko         : DFT Hessian,TD-DFT gradient, ASA, ECA, R-Raman, ABS, FL, XAS/XES, NRVS
   Peter Pinski           : DLPNO-MP2, DLPNO-MP2 Gradient
   Christoph Reimann      : Effective Core Potentials
   Marius Retegan         : Local ZFS, SOC
   Christoph Riplinger    : Optimizer, TS searches, QM/MM, DLPNO-CCSD(T), (RO)-DLPNO pert. Triples
   Tobias Risthaus        : Range-separated hybrids, TD-DFT gradient, RPA, STAB
   Michael Roemelt        : Original ROCIS implementation
   Masaaki Saitow         : Open-shell DLPNO-CCSD energy and density
   Barbara Sandhoefer     : DKH picture change effects
   Avijit Sen             : IP-ROCIS
   Kantharuban Sivalingam : CASSCF convergence, NEVPT2, FIC-MRCI
   Bernardo de Souza      : ESD, SOC TD-DFT
   Georgi Stoychev        : AutoAux, RI-MP2 NMR, DLPNO-MP2 response
   Willem Van den Heuvel  : Paramagnetic NMR
   Boris Wezisla          : Elementary symmetry handling
   Frank Wennmohs         : Technical directorship


 We gratefully acknowledge several colleagues who have allowed us to
 interface, adapt or use parts of their codes:
   Stefan Grimme, W. Hujo, H. Kruse, P. Pracht,  : VdW corrections, initial TS optimization,
                  C. Bannwarth, S. Ehlert          DFT functionals, gCP, sTDA/sTD-DF
   Ed Valeev, F. Pavosevic, A. Kumar             : LibInt (2-el integral package), F12 methods
   Garnet Chan, S. Sharma, J. Yang, R. Olivares  : DMRG
   Ulf Ekstrom                                   : XCFun DFT Library
   Mihaly Kallay                                 : mrcc  (arbitrary order and MRCC methods)
   Jiri Pittner, Ondrej Demel                    : Mk-CCSD
   Frank Weinhold                                : gennbo (NPA and NBO analysis)
   Christopher J. Cramer and Donald G. Truhlar   : smd solvation model
   Lars Goerigk                                  : TD-DFT with DH, B97 family of functionals
   V. Asgeirsson, H. Jonsson                     : NEB implementation
   FAccTs GmbH                                   : IRC, NEB, NEB-TS, DLPNO-Multilevel, CI-OPT
                                                   MM, QMMM, 2- and 3-layer-ONIOM, Crystal-QMMM,
                                                   LR-CPCM, SF, NACMEs, symmetry and pop. for TD-DFT,
                                                   nearIR, NL-DFT gradient (VV10), updates on ESD,
                                                   ML-optimized integration grids
   S Lehtola, MJT Oliveira, MAL Marques          : LibXC Library
   Liviu Ungur et al                             : ANISO software


 Your calculation uses the libint2 library for the computation of 2-el integrals
 For citations please refer to: http://libint.valeyev.net

 Your ORCA version has been built with support for libXC version: 5.1.0
 For citations please refer to: https://tddft.org/programs/libxc/

 This ORCA versions uses:
   CBLAS   interface :  Fast vector & matrix operations
   LAPACKE interface :  Fast linear algebra routines
   SCALAPACK package :  Parallel linear algebra routines
   Shared memory     :  Shared parallel matrices
   BLAS/LAPACK       :  OpenBLAS 0.3.15  USE64BITINT DYNAMIC_ARCH NO_AFFINITY SkylakeX SINGLE_THREADED
        Core in use  :  SkylakeX
   Copyright (c) 2011-2014, The OpenBLAS Project


================================================================================

----- Orbital basis set information -----
Your calculation utilizes the basis: def2-SVP
   F. Weigend and R. Ahlrichs, Phys. Chem. Chem. Phys. 7, 3297 (2005).

----- AuxJ basis set information -----
Your calculation utilizes the auxiliary basis: def2/J
   F. Weigend, Phys. Chem. Chem. Phys. 8, 1057 (2006).

================================================================================
                                        WARNINGS
                       Please study these warnings very carefully!
================================================================================


WARNING: Geometry Optimization
  ===> : Switching off AutoStart
         For restart on a previous wavefunction, please use MOREAD

INFO   : the flag for use of the SHARK integral package has been found!

================================================================================
                                       INPUT FILE
================================================================================
NAME = CaSO4_DFT.inp
|  1> ## avogadro generated ORCA input file 
|  2> # Advanced Mode
|  3> # 
|  4> ! B3LYP OPT def2-SVP NormalPrint defgrid2 NormalSCF 
|  5> 
|  6> ! CPCM
|  7> %cpcm
|  8> epsilon 69.0
|  9> refrac 1.34
| 10> end
| 11> 
| 12> %scf
| 13> 	MaxIter 125
| 14> 	CNVDIIS 1
| 15> 	CNVSOSCF 1 
| 16> end
| 17> 
| 18> * xyz -8 1
| 19>    O        1.29781       -0.07053        0.66720
| 20>    S        2.72462       -0.13248        0.30105
| 21>    O        3.67441       -0.16539        1.37531
| 22>    O        2.72304       -1.27576       -0.62985
| 23>    O        2.81795        0.99514       -0.64417
| 24>   Ca        1.04580       -0.07421       -1.59768
| 25> *
| 26> 
| 27> 
| 28>                          ****END OF INPUT****
================================================================================

                       *****************************
                       * Geometry Optimization Run *
                       *****************************

Geometry optimization settings:
Update method            Update   .... BFGS
Choice of coordinates    CoordSys .... Z-matrix Internals
Initial Hessian          InHess   .... Almoef's Model

Convergence Tolerances:
Energy Change            TolE     ....  5.0000e-06 Eh
Max. Gradient            TolMAXG  ....  3.0000e-04 Eh/bohr
RMS Gradient             TolRMSG  ....  1.0000e-04 Eh/bohr
Max. Displacement        TolMAXD  ....  4.0000e-03 bohr
RMS Displacement         TolRMSD  ....  2.0000e-03 bohr
Strict Convergence                ....  False
------------------------------------------------------------------------------
                        ORCA OPTIMIZATION COORDINATE SETUP
------------------------------------------------------------------------------

The optimization will be done in new redundant internal coordinates
Making redundant internal coordinates   ...  (new redundants) done
Evaluating the initial hessian          ...  (Almloef) done
Evaluating the coordinates              ...  done
Calculating the B-matrix                .... done
Calculating the G-matrix                .... done
Diagonalizing the G-matrix              .... done
The first mode is                       ....   35
The number of degrees of freedom        ....   12

    -----------------------------------------------------------------
                    Redundant Internal Coordinates


    -----------------------------------------------------------------
         Definition                    Initial Value    Approx d2E/dq
    -----------------------------------------------------------------
      1. B(S   1,O   0)                  1.4743         1.106822   
      2. B(O   2,S   1)                  1.4343         1.282225   
      3. B(O   3,S   1)                  1.4743         1.106855   
      4. B(O   4,S   1)                  1.4743         1.106839   
      5. B(Ca  5,S   1)                  2.5352         0.529295   
      6. B(Ca  5,O   3)                  2.2789         0.450657   
      7. B(Ca  5,O   0)                  2.2789         0.450783   
      8. B(Ca  5,O   4)                  2.2789         0.450782   
      9. A(S   1,O   0,Ca  5)           81.9596         0.552732   
     10. A(O   2,S   1,O   3)          117.1180         0.612760   
     11. A(O   3,S   1,Ca  5)           62.8848         0.594890   
     12. A(O   0,S   1,O   4)          100.8562         0.595607   
     13. A(O   3,S   1,O   4)          100.8569         0.595610   
     14. A(O   0,S   1,Ca  5)           62.8817         0.594886   
     15. A(O   0,S   1,O   3)          100.8567         0.595608   
     16. A(O   0,S   1,O   2)          117.1167         0.612757   
     17. A(O   4,S   1,Ca  5)           62.8818         0.594888   
     18. A(O   2,S   1,O   4)          117.1171         0.612758   
     19. A(S   1,O   3,Ca  5)           81.9570         0.552706   
     20. A(S   1,O   4,Ca  5)           81.9597         0.552734   
     21. A(S   1,Ca  5,O   3)           35.1582         0.552045   
     22. A(O   0,Ca  5,O   3)           59.8267         0.513461   
     23. A(O   0,Ca  5,S   1)           35.1587         0.552074   
     24. A(O   3,Ca  5,O   4)           59.8267         0.513461   
     25. A(S   1,Ca  5,O   4)           35.1586         0.552074   
     26. A(O   0,Ca  5,O   4)           59.8276         0.513487   
     27. D(O   2,S   1,O   0,Ca  5)    179.9975         0.030043   
     28. D(O   4,S   1,O   0,Ca  5)     51.7076         0.030043   
     29. D(O   3,S   1,O   0,Ca  5)    -51.7111         0.030043   
     30. D(Ca  5,O   3,S   1,O   4)    -51.7090         0.030044   
     31. D(Ca  5,O   3,S   1,O   2)    179.9997         0.030044   
     32. D(Ca  5,O   3,S   1,O   0)     51.7091         0.030044   
     33. D(Ca  5,O   4,S   1,O   3)     51.7109         0.030044   
     34. D(Ca  5,O   4,S   1,O   2)   -179.9972         0.030044   
     35. D(Ca  5,O   4,S   1,O   0)    -51.7076         0.030044   
     36. D(O   3,Ca  5,S   1,O   0)   -119.9993         0.001764   
     37. D(O   0,Ca  5,S   1,O   4)   -120.0011         0.001764   
     38. D(O   0,Ca  5,S   1,O   3)    119.9993         0.001764   
     39. D(O   4,Ca  5,O   0,S   1)    -35.2285         0.001911   
     40. D(O   3,Ca  5,S   1,O   4)    119.9996         0.001764   
     41. D(O   0,Ca  5,O   4,S   1)     35.2287         0.001911   
     42. D(O   3,Ca  5,O   0,S   1)     35.2293         0.001911   
     43. D(O   4,Ca  5,O   3,S   1)     35.2296         0.001911   
     44. D(O   0,Ca  5,O   3,S   1)    -35.2298         0.001911   
     45. D(O   4,Ca  5,S   1,O   3)   -119.9996         0.001764   
     46. D(O   3,Ca  5,O   4,S   1)    -35.2292         0.001911   
     47. D(O   4,Ca  5,S   1,O   0)    120.0011         0.001764   
    -----------------------------------------------------------------

Number of atoms                         .... 6
Number of degrees of freedom            .... 47

         *************************************************************
         *                GEOMETRY OPTIMIZATION CYCLE   1            *
         *************************************************************
---------------------------------
CARTESIAN COORDINATES (ANGSTROEM)
---------------------------------
  O      1.297810   -0.070530    0.667200
  S      2.724620   -0.132480    0.301050
  O      3.674410   -0.165390    1.375310
  O      2.723040   -1.275760   -0.629850
  O      2.817950    0.995140   -0.644170
  Ca     1.045800   -0.074210   -1.597680

----------------------------
CARTESIAN COORDINATES (A.U.)
----------------------------
  NO LB      ZA    FRAG     MASS         X           Y           Z
   0 O     8.0000    0    15.999    2.452505   -0.133282    1.260825
   1 S    16.0000    0    32.060    5.148786   -0.250351    0.568902
   2 O     8.0000    0    15.999    6.943629   -0.312542    2.598959
   3 O     8.0000    0    15.999    5.145800   -2.410837   -1.190244
   4 O     8.0000    0    15.999    5.325154    1.880542   -1.217305
   5 Ca   20.0000    0    40.080    1.976276   -0.140237   -3.019178

--------------------------------
INTERNAL COORDINATES (ANGSTROEM)
--------------------------------
 O      0   0   0     0.000000000000     0.00000000     0.00000000
 S      1   0   0     1.474344057912     0.00000000     0.00000000
 O      2   1   0     1.434300756397   117.11671170     0.00000000
 O      2   1   3     1.474335940280   100.85673689   128.29144178
 O      2   1   3     1.474339920676   100.85615836   231.71014675
 Ca     1   2   3     2.278860240756    81.95959339   179.99749722

---------------------------
INTERNAL COORDINATES (A.U.)
---------------------------
 O      0   0   0     0.000000000000     0.00000000     0.00000000
 S      1   0   0     2.786106496628     0.00000000     0.00000000
 O      2   1   0     2.710435623266   117.11671170     0.00000000
 O      2   1   3     2.786091156526   100.85673689   128.29144178
 O      2   1   3     2.786098678386   100.85615836   231.71014675
 Ca     1   2   3     4.306421752511    81.95959339   179.99749722

---------------------
BASIS SET INFORMATION
---------------------
There are 3 groups of distinct atoms

 Group   1 Type O   : 7s4p1d contracted to 3s2p1d pattern {511/31/1}
 Group   2 Type S   : 10s7p1d contracted to 4s3p1d pattern {5311/511/1}
 Group   3 Type Ca  : 14s9p4d contracted to 5s3p2d pattern {63311/531/31}

Atom   0O    basis set group =>   1
Atom   1S    basis set group =>   2
Atom   2O    basis set group =>   1
Atom   3O    basis set group =>   1
Atom   4O    basis set group =>   1
Atom   5Ca   basis set group =>   3
---------------------------------
AUXILIARY/J BASIS SET INFORMATION
---------------------------------
There are 3 groups of distinct atoms

 Group   1 Type O   : 12s5p4d2f1g contracted to 6s4p3d1f1g pattern {711111/2111/211/2/1}
 Group   2 Type S   : 14s5p5d2f1g contracted to 8s4p3d1f1g pattern {71111111/2111/311/2/1}
 Group   3 Type Ca  : 19s5p5d3f1g contracted to 8s4p4d1f1g pattern {121111111/2111/2111/3/1}

Atom   0O    basis set group =>   1
Atom   1S    basis set group =>   2
Atom   2O    basis set group =>   1
Atom   3O    basis set group =>   1
Atom   4O    basis set group =>   1
Atom   5Ca   basis set group =>   3
------------------------------------------------------------------------------
                           ORCA GTO INTEGRAL CALCULATION
                           -- RI-GTO INTEGRALS CHOSEN --
------------------------------------------------------------------------------
------------------------------------------------------------------------------
                   ___                                                        
                  /   \      - P O W E R E D   B Y -                         
                 /     \                                                     
                 |  |  |   _    _      __       _____    __    __             
                 |  |  |  | |  | |    /  \     |  _  \  |  |  /  |          
                  \  \/   | |  | |   /    \    | | | |  |  | /  /          
                 / \  \   | |__| |  /  /\  \   | |_| |  |  |/  /          
                |  |  |   |  __  | /  /__\  \  |    /   |      \           
                |  |  |   | |  | | |   __   |  |    \   |  |\   \          
                \     /   | |  | | |  |  |  |  | |\  \  |  | \   \       
                 \___/    |_|  |_| |__|  |__|  |_| \__\ |__|  \__/        
                                                                              
                      - O R C A' S   B I G   F R I E N D -                    
                                      &                                       
                       - I N T E G R A L  F E E D E R -                       
                                                                              
 v1 FN, 2020, v2 2021                                                         
------------------------------------------------------------------------------


Reading SHARK input file CaSO4_DFT.SHARKINP.tmp ... SHARK General Contraction Test:  Segmented basis detected
   -> Pre-screening matrix *NOT* found on disk - recalculating with NShells=42
   -> Leaving CheckPreScreeningMatrix
ok
----------------------
SHARK INTEGRAL PACKAGE
----------------------

Number of atoms                             ...      6
Number of basis functions                   ...     98
Number of shells                            ...     42
Maximum angular momentum                    ...      2
Integral batch strategy                     ... SHARK/LIBINT Hybrid
RI-J (if used) integral strategy            ... SPLIT-RIJ (Revised 2003 algorithm where possible)
Printlevel                                  ...      2
Contraction scheme used                     ... SEGMENTED contraction
Coulomb Range Separation                    ... NOT USED
Exchange Range Separation                   ... NOT USED
Finite Nucleus Model                        ... NOT USED
Auxiliary Coulomb fitting basis             ... AVAILABLE
   # of basis functions in Aux-J            ...    303
   # of shells in Aux-J                     ...     95
   Maximum angular momentum in Aux-J        ...      4
Auxiliary J/K fitting basis                 ... NOT available
Auxiliary Correlation fitting basis         ... NOT available
Auxiliary 'external' fitting basis          ... NOT available
Integral threshold                          ...     2.500000e-11
Primitive cut-off                           ...     2.500000e-12
Primitive pair pre-selection threshold      ...     2.500000e-12

Calculating pre-screening integrals         ... done (  0.0 sec) Dimension = 42
Organizing shell pair data                  ... done (  0.0 sec)
Shell pair information
Total number of shell pairs                 ...       903
Shell pairs after pre-screening             ...       863
Total number of primitive shell pairs       ...      4483
Primitive shell pairs kept                  ...      3178
          la=0 lb=0:    207 shell pairs
          la=1 lb=0:    283 shell pairs
          la=1 lb=1:    103 shell pairs
          la=2 lb=0:    145 shell pairs
          la=2 lb=1:     97 shell pairs
          la=2 lb=2:     28 shell pairs

Calculating one electron integrals          ... done (  0.0 sec)
Calculating RI/J V-Matrix + Cholesky decomp.... done (  0.0 sec)
Calculating Nuclear repulsion               ... done (  0.0 sec) ENN=    470.279657674187 Eh

SHARK setup successfully completed in   0.2 seconds

Maximum memory used throughout the entire GTOINT-calculation: 16.1 MB
-------------------------------------------------------------------------------
                                 ORCA SCF
-------------------------------------------------------------------------------

------------
SCF SETTINGS
------------
Hamiltonian:
 Density Functional     Method          .... DFT(GTOs)
 Exchange Functional    Exchange        .... B88
   X-Alpha parameter    XAlpha          ....  0.666667
   Becke's b parameter  XBeta           ....  0.004200
 Correlation Functional Correlation     .... LYP
 LDA part of GGA corr.  LDAOpt          .... VWN-5
 Gradients option       PostSCFGGA      .... off
 Hybrid DFT is turned on
   Fraction HF Exchange ScalHFX         ....  0.200000
   Scaling of DF-GGA-X  ScalDFX         ....  0.720000
   Scaling of DF-GGA-C  ScalDFC         ....  0.810000
   Scaling of DF-LDA-C  ScalLDAC        ....  1.000000
   Perturbative correction              ....  0.000000
   Density functional embedding theory  .... OFF
   NL short-range parameter             ....  4.800000
 RI-approximation to the Coulomb term is turned on
   Number of AuxJ basis functions       .... 303
   RIJ-COSX (HFX calculated with COS-X)).... on


General Settings:
 Integral files         IntName         .... CaSO4_DFT
 Hartree-Fock type      HFTyp           .... RHF
 Total Charge           Charge          ....   -8
 Multiplicity           Mult            ....    1
 Number of Electrons    NEL             ....   76
 Basis Dimension        Dim             ....   98
 Nuclear Repulsion      ENuc            ....    470.2796576742 Eh

Convergence Acceleration:
 DIIS                   CNVDIIS         .... on
   Start iteration      DIISMaxIt       ....    12
   Startup error        DIISStart       ....  0.200000
   # of expansion vecs  DIISMaxEq       ....     5
   Bias factor          DIISBfac        ....   1.050
   Max. coefficient     DIISMaxC        ....  10.000
 Trust-Rad. Augm. Hess. CNVTRAH         .... auto
   Auto Start mean grad. ratio tolernc. ....  1.125000
   Auto Start start iteration           ....    20
   Auto Start num. interpolation iter.  ....    10
   Max. Number of Micro iterations      ....    16
   Max. Number of Macro iterations      .... Maxiter - #DIIS iter
   Number of Davidson start vectors     ....     2
   Converg. threshold I  (grad. norm)   ....   1.000e-05
   Converg. threshold II (energy diff.) ....   1.000e-08
   Grad. Scal. Fac. for Micro threshold ....   0.100
   Minimum threshold for Micro iter.    ....   0.010
   NR start threshold (gradient norm)   ....   0.001
   Initial trust radius                 ....   0.400
   Minimum AH scaling param. (alpha)    ....   1.000
   Maximum AH scaling param. (alpha)    .... 1000.000
   Orbital update algorithm             .... Taylor
   White noise on init. David. guess    .... on
   Maximum white noise                  ....   0.010
   Quad. conv. algorithm                .... NR
 SOSCF                  CNVSOSCF        .... on
   Start iteration      SOSCFMaxIt      ....   150
   Startup grad/error   SOSCFStart      ....  0.003300
 Level Shifting         CNVShift        .... on
   Level shift para.    LevelShift      ....    0.2500
   Turn off err/grad.   ShiftErr        ....    0.0010
 Zerner damping         CNVZerner       .... off
 Static damping         CNVDamp         .... on
   Fraction old density DampFac         ....    0.7000
   Max. Damping (<1)    DampMax         ....    0.9800
   Min. Damping (>=0)   DampMin         ....    0.0000
   Turn off err/grad.   DampErr         ....    0.1000
 Fernandez-Rico         CNVRico         .... off

SCF Procedure:
 Maximum # iterations   MaxIter         ....   125
 SCF integral mode      SCFMode         .... Direct
   Integral package                     .... SHARK and LIBINT hybrid scheme
 Reset frequency        DirectResetFreq ....    20
 Integral Threshold     Thresh          ....  2.500e-11 Eh
 Primitive CutOff       TCut            ....  2.500e-12 Eh

Convergence Tolerance:
 Convergence Check Mode ConvCheckMode   .... Total+1el-Energy
 Convergence forced     ConvForced      .... 0
 Energy Change          TolE            ....  1.000e-08 Eh
 1-El. energy change                    ....  1.000e-05 Eh
 Orbital Gradient       TolG            ....  1.000e-05
 Orbital Rotation angle TolX            ....  1.000e-05
 DIIS Error             TolErr          ....  5.000e-07


Diagonalization of the overlap matrix:
Smallest eigenvalue                        ... 2.989e-03
Time for diagonalization                   ...    0.002 sec
Threshold for overlap eigenvalues          ... 1.000e-08
Number of eigenvalues below threshold      ... 0
Time for construction of square roots      ...    0.004 sec
Total time needed                          ...    0.006 sec

SHARK General Contraction Test:  Segmented basis detected
   -> Pre-screening matrix found on disk - Trying to read with NShells=42
   -> Passing Pre-screening matrix on to SHARK ...ok
   -> Leaving CheckPreScreeningMatrix
----------------------
SHARK INTEGRAL PACKAGE
----------------------

Number of atoms                             ...      6
Number of basis functions                   ...     98
Number of shells                            ...     42
Maximum angular momentum                    ...      2
Integral batch strategy                     ... SHARK/LIBINT Hybrid
RI-J (if used) integral strategy            ... SPLIT-RIJ (Revised 2003 algorithm where possible)
Printlevel                                  ...      2
Contraction scheme used                     ... SEGMENTED contraction
Coulomb Range Separation                    ... NOT USED
Exchange Range Separation                   ... NOT USED
Finite Nucleus Model                        ... NOT USED
Auxiliary Coulomb fitting basis             ... AVAILABLE
   # of basis functions in Aux-J            ...    303
   # of shells in Aux-J                     ...     95
   Maximum angular momentum in Aux-J        ...      4
Auxiliary J/K fitting basis                 ... NOT available
Auxiliary Correlation fitting basis         ... NOT available
Auxiliary 'external' fitting basis          ... NOT available
Integral threshold                          ...     2.500000e-11
Primitive cut-off                           ...     2.500000e-12
Primitive pair pre-selection threshold      ...     2.500000e-12

Time for model grid setup =    0.078 sec

------------------------------
INITIAL GUESS: MODEL POTENTIAL
------------------------------
Loading Hartree-Fock densities                     ... done
Calculating cut-offs                               ... done
Initializing the effective Hamiltonian             ... done
Setting up the integral package (SHARK)            ... done
Starting the Coulomb interaction                   ...     -> Generating integrals - 
    -> L=0 0 :     0.005 sec done=     16124 skipped=         9 prim-skipped=         0
    -> L=1 0 :     0.009 sec done=     21964 skipped=       110 prim-skipped=         0
    -> L=1 1 :     0.005 sec done=      8034 skipped=         0 prim-skipped=         0
    -> L=2 0 :     0.004 sec done=     11169 skipped=       129 prim-skipped=         0
    -> L=2 1 :     0.005 sec done=      7566 skipped=         0 prim-skipped=         0
    -> L=2 2 :     0.002 sec done=      2184 skipped=         0 prim-skipped=         0
done (   0.0 sec)
Reading the grid                                   ... done
Mapping shells                                     ... done
Starting the XC term evaluation                    ... done (   0.1 sec)
  promolecular density results
     # of electrons  =     67.999368192
     EX              =    -93.235048541
     EC              =     -2.720949305
     EX+EC           =    -95.955997845
Transforming the Hamiltonian                       ... done (   0.0 sec)
Diagonalizing the Hamiltonian                      ... done (   0.0 sec)
Back transforming the eigenvectors                 ... done (   0.0 sec)
Now organizing SCF variables                       ... done
                      ------------------
                      INITIAL GUESS DONE (   0.2 sec)
                      ------------------
-------------------
DFT GRID GENERATION
-------------------

General Integration Accuracy     IntAcc      ... 4.388
Radial Grid Type                 RadialGrid  ... OptM3 with GC (2021)
Angular Grid (max. ang.)         AngularGrid ... 4 (Lebedev-302)
Angular grid pruning method      GridPruning ... 4 (adaptive)
Weight generation scheme         WeightScheme... Becke
Basis function cutoff            BFCut       ... 1.0000e-11
Integration weight cutoff        WCut        ... 1.0000e-14
Angular grids for H and He will be reduced by one unit
Partially contracted basis set               ... off
Rotationally invariant grid construction     ... off

Total number of grid points                  ...    42939
Total number of batches                      ...      674
Average number of points per batch           ...       63
Average number of grid points per atom       ...     7156
Time for grid setup =    0.319 sec

--------------------
COSX GRID GENERATION
--------------------

GRIDX 1
-------
General Integration Accuracy     IntAcc      ... 3.816
Radial Grid Type                 RadialGrid  ... OptM3 with GC (2021)
Angular Grid (max. ang.)         AngularGrid ... 1 (Lebedev-50)
Angular grid pruning method      GridPruning ... 4 (adaptive)
Weight generation scheme         WeightScheme... Becke
Basis function cutoff            BFCut       ... 1.0000e-11
Integration weight cutoff        WCut        ... 1.0000e-14
Angular grids for H and He will be reduced by one unit
Partially contracted basis set               ... on
Rotationally invariant grid construction     ... off

Total number of grid points                  ...     5113
Total number of batches                      ...       83
Average number of points per batch           ...       61
Average number of grid points per atom       ...      852
UseSFitting                                  ... on

GRIDX 2
-------
General Integration Accuracy     IntAcc      ... 4.020
Radial Grid Type                 RadialGrid  ... OptM3 with GC (2021)
Angular Grid (max. ang.)         AngularGrid ... 2 (Lebedev-110)
Angular grid pruning method      GridPruning ... 4 (adaptive)
Weight generation scheme         WeightScheme... Becke
Basis function cutoff            BFCut       ... 1.0000e-11
Integration weight cutoff        WCut        ... 1.0000e-14
Angular grids for H and He will be reduced by one unit
Partially contracted basis set               ... on
Rotationally invariant grid construction     ... off

Total number of grid points                  ...    12032
Total number of batches                      ...      190
Average number of points per batch           ...       63
Average number of grid points per atom       ...     2005
UseSFitting                                  ... on

GRIDX 3
-------
General Integration Accuracy     IntAcc      ... 4.338
Radial Grid Type                 RadialGrid  ... OptM3 with GC (2021)
Angular Grid (max. ang.)         AngularGrid ... 3 (Lebedev-194)
Angular grid pruning method      GridPruning ... 4 (adaptive)
Weight generation scheme         WeightScheme... Becke
Basis function cutoff            BFCut       ... 1.0000e-11
Integration weight cutoff        WCut        ... 1.0000e-14
Angular grids for H and He will be reduced by one unit
Partially contracted basis set               ... on
Rotationally invariant grid construction     ... off

Total number of grid points                  ...    27598
Total number of batches                      ...      434
Average number of points per batch           ...       63
Average number of grid points per atom       ...     4600
UseSFitting                                  ... on

Time for X-Grid setup             =    0.289 sec


--------------------
CPCM SOLVATION MODEL
--------------------
CPCM parameters:
  Epsilon                                         ...      69.0000
  Refrac                                          ...       1.3400
  Rsolv                                           ...       1.3000
  Surface type                                    ... GAUSSIAN VDW
  Epsilon function type                           ...         CPCM
Radii:
 Radius for O  used is    3.4469 Bohr (=   1.8240 Ang.)
 Radius for S  used is    4.0818 Bohr (=   2.1600 Ang.)
 Radius for Ca used is    5.2383 Bohr (=   2.7720 Ang.)
Calculating surface                               ...        done! (  0.0s)
GEPOL surface points                              ...          378
GEPOL Volume                                      ...     927.1154
GEPOL Surface-area                                ...     495.8094
Calculating surface distance matrix               ...        done! (  0.0s)
Performing Cholesky decomposition & store         ...        done! (  0.0s)
Overall time for CPCM initialization              ...                 0.0s
--------------
SCF ITERATIONS
--------------
               ***  Starting incremental Fock matrix formation  ***
==>> SHARK/AuxDens: NDens=1 Thresh =     2.500000e-11 TCut=    2.500000e-12 Lmax=2 LmaxAux=4
    -> Making Hermite density - ok     0.002 sec
    -> Making Aux-basis density - (lmax=2)
    -> L=0 0:    0.006 sec done=     19544 ( 99.4%) skipped=       121 
    -> L=1 0:    0.012 sec done=     26854 ( 99.9%) skipped=        31 
    -> L=1 1:    0.008 sec done=      9785 (100.0%) skipped=         0 
    -> L=2 0:    0.007 sec done=     12898 ( 93.6%) skipped=       877 
    -> L=2 1:    0.009 sec done=      9215 (100.0%) skipped=         0 
    -> L=2 2:    0.003 sec done=      2660 (100.0%) skipped=         0 
    -> Aux basis density formed in    0.0 sec
    -> Solving linear equations - ok (   0.0 sec)
        Auxbasis Hermite Density:
        P|s>                     ...  0.000
        P|p>                     ...  0.000
        P|d>                     ...  0.000
        P|f>                     ...  0.000
        P|g>                     ...  0.000
        Building the Coulomb matrix: 
        J|ss>                          ... done (  0.0 sec) ndone=   133269 nskipped1=      281 nskipped2=     2397
        J|ps>                          ... done (  0.0 sec) ndone=   166409 nskipped1=      210 nskipped2=     9145
        J|pp>                          ... done (  0.0 sec) ndone=    67246 nskipped1=        0 nskipped2=     2018
        J|ds>                          ... done (  0.0 sec) ndone=    58023 nskipped1=      478 nskipped2=     7505
        J|dp>                          ... done (  0.0 sec) ndone=    40405 nskipped1=        0 nskipped2=      935
        J|dd>                          ... done (  0.0 sec) ndone=     7176 nskipped1=        0 nskipped2=        0
        Coulomb matrix built in   0.0 sec

        Total time for Split-RI-J                ...    0.083 sec
          (0) Prelude                            ...    0.000 sec
          (1) Hermite density                    ...    0.000 sec
          (2) Aux basis density                  ...    0.000 sec (inner=  0.0)
          (3) Linear equation solution           ...    0.000 sec
          (4) J-Matrix construction              ...    0.034 sec (inner=  0.0)
        ---------------------------------------------------------

                         ----------------------------
                         !        ITERATION     0   !
                         ----------------------------
   Total Energy        :   -1371.839120889997 Eh
   Energy Change       :   -1371.839120889997 Eh
   MAX-DP              :       1.915810877202
   RMS-DP              :       0.046366906780
   Actual Damping      :       0.7000
   Actual Level Shift  :       0.2500 Eh
   Int. Num. El.       :    75.99519677 (UP=   37.99759838 DN=   37.99759838)
   Exchange            :   -77.91436484
   Correlation         :    -3.51606665

==>> SHARK/AuxDens: NDens=1 Thresh =     2.500000e-11 TCut=    2.500000e-12 Lmax=2 LmaxAux=4
    -> Making Hermite density - ok     0.002 sec
    -> Making Aux-basis density - (lmax=2)
    -> L=0 0:    0.006 sec done=     19555 ( 99.4%) skipped=       110 
    -> L=1 0:    0.014 sec done=     26382 ( 98.1%) skipped=       503 
    -> L=1 1:    0.010 sec done=      9785 (100.0%) skipped=         0 
    -> L=2 0:    0.008 sec done=     12822 ( 93.1%) skipped=       953 
    -> L=2 1:    0.011 sec done=      9215 (100.0%) skipped=         0 
    -> L=2 2:    0.004 sec done=      2660 (100.0%) skipped=         0 
    -> Aux basis density formed in    0.1 sec
    -> Solving linear equations - ok (   0.0 sec)
        Auxbasis Hermite Density:
        P|s>                     ...  0.000
        P|p>                     ...  0.000
        P|d>                     ...  0.000
        P|f>                     ...  0.000
        P|g>                     ...  0.000
        Building the Coulomb matrix: 
        J|ss>                          ... done (  0.0 sec) ndone=   133060 nskipped1=      422 nskipped2=     2244
        J|ps>                          ... done (  0.0 sec) ndone=   165276 nskipped1=     1053 nskipped2=     8100
        J|pp>                          ... done (  0.0 sec) ndone=    67246 nskipped1=        0 nskipped2=     2018
        J|ds>                          ... done (  0.0 sec) ndone=    56830 nskipped1=     1587 nskipped2=     5938
        J|dp>                          ... done (  0.0 sec) ndone=    40405 nskipped1=        0 nskipped2=      935
        J|dd>                          ... done (  0.0 sec) ndone=     7176 nskipped1=        0 nskipped2=        0
        Coulomb matrix built in   0.0 sec

        Total time for Split-RI-J                ...    0.098 sec
          (0) Prelude                            ...    0.000 sec
          (1) Hermite density                    ...    0.000 sec
          (2) Aux basis density                  ...    0.000 sec (inner=  0.0)
          (3) Linear equation solution           ...    0.000 sec
          (4) J-Matrix construction              ...    0.041 sec (inner=  0.0)
        ---------------------------------------------------------

                         ----------------------------
                         !        ITERATION     1   !
                         ----------------------------
   Total Energy        :   -1373.299390483235 Eh
   Energy Change       :      -1.460269593238 Eh
   MAX-DP              :       0.970271410535
   RMS-DP              :       0.021756424338
   Actual Damping      :       0.7000
   Actual Level Shift  :       0.2500 Eh
   Int. Num. El.       :    75.95380139 (UP=   37.97690069 DN=   37.97690069)
   Exchange            :   -75.95191464
   Correlation         :    -3.43002701

==>> SHARK/AuxDens: NDens=1 Thresh =     2.500000e-11 TCut=    2.500000e-12 Lmax=2 LmaxAux=4
    -> Making Hermite density - ok     0.002 sec
    -> Making Aux-basis density - (lmax=2)
    -> L=0 0:    0.006 sec done=     19497 ( 99.1%) skipped=       168 
    -> L=1 0:    0.014 sec done=     25987 ( 96.7%) skipped=       898 
    -> L=1 1:    0.010 sec done=      9785 (100.0%) skipped=         0 
    -> L=2 0:    0.008 sec done=     12495 ( 90.7%) skipped=      1280 
    -> L=2 1:    0.012 sec done=      9215 (100.0%) skipped=         0 
    -> L=2 2:    0.004 sec done=      2660 (100.0%) skipped=         0 
    -> Aux basis density formed in    0.1 sec
    -> Solving linear equations - ok (   0.0 sec)
        Auxbasis Hermite Density:
        P|s>                     ...  0.000
        P|p>                     ...  0.000
        P|d>                     ...  0.000
        P|f>                     ...  0.000
        P|g>                     ...  0.000
        Building the Coulomb matrix: 
        J|ss>                          ... done (  0.0 sec) ndone=   133132 nskipped1=      419 nskipped2=     2231
        J|ps>                          ... done (  0.0 sec) ndone=   165158 nskipped1=     1215 nskipped2=     8023
        J|pp>                          ... done (  0.0 sec) ndone=    67246 nskipped1=        0 nskipped2=     2018
        J|ds>                          ... done (  0.0 sec) ndone=    56603 nskipped1=     1859 nskipped2=     5564
        J|dp>                          ... done (  0.0 sec) ndone=    40405 nskipped1=        0 nskipped2=      935
        J|dd>                          ... done (  0.0 sec) ndone=     7176 nskipped1=        0 nskipped2=        0
        Coulomb matrix built in   0.0 sec

        Total time for Split-RI-J                ...    0.098 sec
          (0) Prelude                            ...    0.000 sec
          (1) Hermite density                    ...    0.000 sec
          (2) Aux basis density                  ...    0.000 sec (inner=  0.0)
          (3) Linear equation solution           ...    0.000 sec
          (4) J-Matrix construction              ...    0.041 sec (inner=  0.0)
        ---------------------------------------------------------
                               ***Turning on DIIS***

                         ----------------------------
                         !        ITERATION     2   !
                         ----------------------------
   Total Energy        :   -1373.937417030042 Eh
   Energy Change       :      -0.638026546807 Eh
   MAX-DP              :       0.523546366072
   RMS-DP              :       0.012084239111
   Actual Damping      :       0.7000
   Actual Level Shift  :       0.2500 Eh
   Int. Num. El.       :    75.93212876 (UP=   37.96606438 DN=   37.96606438)
   Exchange            :   -75.47900792
   Correlation         :    -3.40615382
   DIIS-Error          :       0.142075371627

==>> SHARK/AuxDens: NDens=1 Thresh =     2.500000e-11 TCut=    2.500000e-12 Lmax=2 LmaxAux=4
    -> Making Hermite density - ok     0.002 sec
    -> Making Aux-basis density - (lmax=2)
    -> L=0 0:    0.007 sec done=     19128 ( 97.3%) skipped=       537 
    -> L=1 0:    0.014 sec done=     25912 ( 96.4%) skipped=       973 
    -> L=1 1:    0.009 sec done=      9785 (100.0%) skipped=         0 
    -> L=2 0:    0.008 sec done=     12473 ( 90.5%) skipped=      1302 
    -> L=2 1:    0.011 sec done=      9215 (100.0%) skipped=         0 
    -> L=2 2:    0.004 sec done=      2660 (100.0%) skipped=         0 
    -> Aux basis density formed in    0.1 sec
    -> Solving linear equations - ok (   0.0 sec)
        Auxbasis Hermite Density:
        P|s>                     ...  0.000
        P|p>                     ...  0.000
        P|d>                     ...  0.000
        P|f>                     ...  0.000
        P|g>                     ...  0.000
        Building the Coulomb matrix: 
        J|ss>                          ... done (  0.0 sec) ndone=   132906 nskipped1=      496 nskipped2=     2134
        J|ps>                          ... done (  0.0 sec) ndone=   164396 nskipped1=     1860 nskipped2=     7522
        J|pp>                          ... done (  0.0 sec) ndone=    67246 nskipped1=        0 nskipped2=     2018
        J|ds>                          ... done (  0.0 sec) ndone=    56191 nskipped1=     2310 nskipped2=     5233
        J|dp>                          ... done (  0.0 sec) ndone=    40405 nskipped1=        0 nskipped2=      935
        J|dd>                          ... done (  0.0 sec) ndone=     7176 nskipped1=        0 nskipped2=        0
        Coulomb matrix built in   0.0 sec

        Total time for Split-RI-J                ...    0.099 sec
          (0) Prelude                            ...    0.000 sec
          (1) Hermite density                    ...    0.000 sec
          (2) Aux basis density                  ...    0.000 sec (inner=  0.0)
          (3) Linear equation solution           ...    0.000 sec
          (4) J-Matrix construction              ...    0.043 sec (inner=  0.0)
        ---------------------------------------------------------

                         ----------------------------
                         !        ITERATION     3   !
                         ----------------------------
   Total Energy        :   -1374.437251250597 Eh
   Energy Change       :      -0.499834220555 Eh
   MAX-DP              :       0.227627395847
   RMS-DP              :       0.007170196303
   Actual Damping      :       0.7000
   Actual Level Shift  :       0.2500 Eh
   Int. Num. El.       :    75.92019384 (UP=   37.96009692 DN=   37.96009692)
   Exchange            :   -75.38612057
   Correlation         :    -3.39721032
   DIIS-Error          :       0.129623841953
   DIIS coefficients:
     -0.47930   1.47930

==>> SHARK/AuxDens: NDens=1 Thresh =     2.500000e-11 TCut=    2.500000e-12 Lmax=2 LmaxAux=4
    -> Making Hermite density - ok     0.002 sec
    -> Making Aux-basis density - (lmax=2)
    -> L=0 0:    0.006 sec done=     19363 ( 98.5%) skipped=       302 
    -> L=1 0:    0.012 sec done=     25872 ( 96.2%) skipped=      1013 
    -> L=1 1:    0.010 sec done=      9785 (100.0%) skipped=         0 
    -> L=2 0:    0.008 sec done=     12439 ( 90.3%) skipped=      1336 
    -> L=2 1:    0.012 sec done=      9213 (100.0%) skipped=         2 
    -> L=2 2:    0.004 sec done=      2660 (100.0%) skipped=         0 
    -> Aux basis density formed in    0.1 sec
    -> Solving linear equations - ok (   0.0 sec)
        Auxbasis Hermite Density:
        P|s>                     ...  0.000
        P|p>                     ...  0.000
        P|d>                     ...  0.000
        P|f>                     ...  0.000
        P|g>                     ...  0.000
        Building the Coulomb matrix: 
        J|ss>                          ... done (  0.0 sec) ndone=   132734 nskipped1=      699 nskipped2=     2206
        J|ps>                          ... done (  0.0 sec) ndone=   163929 nskipped1=     2228 nskipped2=     7401
        J|pp>                          ... done (  0.0 sec) ndone=    67246 nskipped1=        0 nskipped2=     2018
        J|ds>                          ... done (  0.0 sec) ndone=    56041 nskipped1=     2531 nskipped2=     5219
        J|dp>                          ... done (  0.0 sec) ndone=    40405 nskipped1=        0 nskipped2=      935
        J|dd>                          ... done (  0.0 sec) ndone=     7176 nskipped1=        0 nskipped2=        0
        Coulomb matrix built in   0.0 sec

        Total time for Split-RI-J                ...    0.095 sec
          (0) Prelude                            ...    0.000 sec
          (1) Hermite density                    ...    0.000 sec
          (2) Aux basis density                  ...    0.000 sec (inner=  0.0)
          (3) Linear equation solution           ...    0.000 sec
          (4) J-Matrix construction              ...    0.040 sec (inner=  0.0)
        ---------------------------------------------------------

                         ----------------------------
                         !        ITERATION     4   !
                         ----------------------------
   Total Energy        :   -1374.800461616082 Eh
   Energy Change       :      -0.363210365485 Eh
   MAX-DP              :       0.693729922359
   RMS-DP              :       0.017436826073
   Actual Damping      :       0.0000
   Actual Level Shift  :       0.2500 Eh
   Int. Num. El.       :    75.91512488 (UP=   37.95756244 DN=   37.95756244)
   Exchange            :   -75.41812476
   Correlation         :    -3.39435778
   DIIS-Error          :       0.095804077321
   DIIS coefficients:
     -0.23943  -1.14414   2.38356

==>> SHARK/AuxDens: NDens=1 Thresh =     2.500000e-11 TCut=    2.500000e-12 Lmax=2 LmaxAux=4
    -> Making Hermite density - ok     0.002 sec
    -> Making Aux-basis density - (lmax=2)
    -> L=0 0:    0.006 sec done=     19549 ( 99.4%) skipped=       116 
    -> L=1 0:    0.013 sec done=     26099 ( 97.1%) skipped=       786 
    -> L=1 1:    0.010 sec done=      9785 (100.0%) skipped=         0 
    -> L=2 0:    0.008 sec done=     12660 ( 91.9%) skipped=      1115 
    -> L=2 1:    0.011 sec done=      9215 (100.0%) skipped=         0 
    -> L=2 2:    0.004 sec done=      2660 (100.0%) skipped=         0 
    -> Aux basis density formed in    0.1 sec
    -> Solving linear equations - ok (   0.0 sec)
        Auxbasis Hermite Density:
        P|s>                     ...  0.000
        P|p>                     ...  0.000
        P|d>                     ...  0.000
        P|f>                     ...  0.000
        P|g>                     ...  0.000
        Building the Coulomb matrix: 
        J|ss>                          ... done (  0.0 sec) ndone=   133059 nskipped1=      479 nskipped2=     2214
        J|ps>                          ... done (  0.0 sec) ndone=   165015 nskipped1=     1450 nskipped2=     8073
        J|pp>                          ... done (  0.0 sec) ndone=    67246 nskipped1=        0 nskipped2=     2018
        J|ds>                          ... done (  0.0 sec) ndone=    56497 nskipped1=     2094 nskipped2=     5591
        J|dp>                          ... done (  0.0 sec) ndone=    40405 nskipped1=        0 nskipped2=      935
        J|dd>                          ... done (  0.0 sec) ndone=     7176 nskipped1=        0 nskipped2=        0
        Coulomb matrix built in   0.0 sec

        Total time for Split-RI-J                ...    0.096 sec
          (0) Prelude                            ...    0.000 sec
          (1) Hermite density                    ...    0.000 sec
          (2) Aux basis density                  ...    0.000 sec (inner=  0.0)
          (3) Linear equation solution           ...    0.000 sec
          (4) J-Matrix construction              ...    0.041 sec (inner=  0.0)
        ---------------------------------------------------------

                         ----------------------------
                         !        ITERATION     5   !
                         ----------------------------
   Total Energy        :   -1375.671206293998 Eh
   Energy Change       :      -0.870744677916 Eh
   MAX-DP              :       0.173658456999
   RMS-DP              :       0.003997359792
   Actual Damping      :       0.0000
   Actual Level Shift  :       0.2500 Eh
   Int. Num. El.       :    75.91237331 (UP=   37.95618665 DN=   37.95618665)
   Exchange            :   -75.56919548
   Correlation         :    -3.39122490
   DIIS-Error          :       0.016951275215
   DIIS coefficients:
     -0.13111   0.03908   0.19447   0.89757

==>> SHARK/AuxDens: NDens=1 Thresh =     2.500000e-11 TCut=    2.500000e-12 Lmax=2 LmaxAux=4
    -> Making Hermite density - ok     0.002 sec
    -> Making Aux-basis density - (lmax=2)
    -> L=0 0:    0.006 sec done=     18245 ( 92.8%) skipped=      1420 
    -> L=1 0:    0.013 sec done=     25632 ( 95.3%) skipped=      1253 
    -> L=1 1:    0.009 sec done=      9785 (100.0%) skipped=         0 
    -> L=2 0:    0.007 sec done=     12335 ( 89.5%) skipped=      1440 
    -> L=2 1:    0.010 sec done=      9213 (100.0%) skipped=         2 
    -> L=2 2:    0.003 sec done=      2660 (100.0%) skipped=         0 
    -> Aux basis density formed in    0.0 sec
    -> Solving linear equations - ok (   0.0 sec)
        Auxbasis Hermite Density:
        P|s>                     ...  0.000
        P|p>                     ...  0.000
        P|d>                     ...  0.000
        P|f>                     ...  0.000
        P|g>                     ...  0.000
        Building the Coulomb matrix: 
        J|ss>                          ... done (  0.0 sec) ndone=   131773 nskipped1=     1095 nskipped2=     1827
        J|ps>                          ... done (  0.0 sec) ndone=   163347 nskipped1=     2543 nskipped2=     6776
        J|pp>                          ... done (  0.0 sec) ndone=    67231 nskipped1=       15 nskipped2=     2018
        J|ds>                          ... done (  0.0 sec) ndone=    55353 nskipped1=     3226 nskipped2=     4193
        J|dp>                          ... done (  0.0 sec) ndone=    40395 nskipped1=       10 nskipped2=      935
        J|dd>                          ... done (  0.0 sec) ndone=     7176 nskipped1=        0 nskipped2=        0
        Coulomb matrix built in   0.0 sec

        Total time for Split-RI-J                ...    0.093 sec
          (0) Prelude                            ...    0.000 sec
          (1) Hermite density                    ...    0.000 sec
          (2) Aux basis density                  ...    0.000 sec (inner=  0.0)
          (3) Linear equation solution           ...    0.000 sec
          (4) J-Matrix construction              ...    0.041 sec (inner=  0.0)
        ---------------------------------------------------------

                         ----------------------------
                         !        ITERATION     6   !
                         ----------------------------
   Total Energy        :   -1375.678853063682 Eh
   Energy Change       :      -0.007646769684 Eh
   MAX-DP              :       0.085355791720
   RMS-DP              :       0.002810032951
   Actual Damping      :       0.0000
   Actual Level Shift  :       0.2500 Eh
   Int. Num. El.       :    75.91596418 (UP=   37.95798209 DN=   37.95798209)
   Exchange            :   -75.56103718
   Correlation         :    -3.39120484
   DIIS-Error          :       0.018490269825
   DIIS coefficients:
     -0.05607   0.03617   0.06171   0.34179   0.61640

==>> SHARK/AuxDens: NDens=1 Thresh =     2.500000e-11 TCut=    2.500000e-12 Lmax=2 LmaxAux=4
    -> Making Hermite density - ok     0.002 sec
    -> Making Aux-basis density - (lmax=2)
    -> L=0 0:    0.006 sec done=     18133 ( 92.2%) skipped=      1532 
    -> L=1 0:    0.013 sec done=     25338 ( 94.2%) skipped=      1547 
    -> L=1 1:    0.009 sec done=      9785 (100.0%) skipped=         0 
    -> L=2 0:    0.008 sec done=     12095 ( 87.8%) skipped=      1680 
    -> L=2 1:    0.011 sec done=      9205 ( 99.9%) skipped=        10 
    -> L=2 2:    0.004 sec done=      2660 (100.0%) skipped=         0 
    -> Aux basis density formed in    0.1 sec
    -> Solving linear equations - ok (   0.0 sec)
        Auxbasis Hermite Density:
        P|s>                     ...  0.000
        P|p>                     ...  0.000
        P|d>                     ...  0.000
        P|f>                     ...  0.000
        P|g>                     ...  0.000
        Building the Coulomb matrix: 
        J|ss>                          ... done (  0.0 sec) ndone=   131998 nskipped1=     1040 nskipped2=     1963
        J|ps>                          ... done (  0.0 sec) ndone=   163221 nskipped1=     2820 nskipped2=     6757
        J|pp>                          ... done (  0.0 sec) ndone=    67206 nskipped1=       40 nskipped2=     2018
        J|ds>                          ... done (  0.0 sec) ndone=    55367 nskipped1=     3316 nskipped2=     4365
        J|dp>                          ... done (  0.0 sec) ndone=    40380 nskipped1=       25 nskipped2=      935
        J|dd>                          ... done (  0.0 sec) ndone=     7176 nskipped1=        0 nskipped2=        0
        Coulomb matrix built in   0.0 sec

        Total time for Split-RI-J                ...    0.097 sec
          (0) Prelude                            ...    0.000 sec
          (1) Hermite density                    ...    0.000 sec
          (2) Aux basis density                  ...    0.000 sec (inner=  0.0)
          (3) Linear equation solution           ...    0.000 sec
          (4) J-Matrix construction              ...    0.042 sec (inner=  0.0)
        ---------------------------------------------------------

                         ----------------------------
                         !        ITERATION     7   !
                         ----------------------------
   Total Energy        :   -1375.686023997345 Eh
   Energy Change       :      -0.007170933663 Eh
   MAX-DP              :       0.078545124938
   RMS-DP              :       0.002429147751
   Actual Damping      :       0.0000
   Actual Level Shift  :       0.2500 Eh
   Int. Num. El.       :    75.91749908 (UP=   37.95874954 DN=   37.95874954)
   Exchange            :   -75.56291570
   Correlation         :    -3.39117329
   DIIS-Error          :       0.019926468813
   DIIS coefficients:
      0.61442  -0.02150   0.04113   0.11369   0.25226

==>> SHARK/AuxDens: NDens=1 Thresh =     2.500000e-11 TCut=    2.500000e-12 Lmax=2 LmaxAux=4
    -> Making Hermite density - ok     0.003 sec
    -> Making Aux-basis density - (lmax=2)
    -> L=0 0:    0.010 sec done=     18037 ( 91.7%) skipped=      1628 
    -> L=1 0:    0.017 sec done=     25187 ( 93.7%) skipped=      1698 
    -> L=1 1:    0.010 sec done=      9785 (100.0%) skipped=         0 
    -> L=2 0:    0.009 sec done=     12028 ( 87.3%) skipped=      1747 
    -> L=2 1:    0.012 sec done=      9204 ( 99.9%) skipped=        11 
    -> L=2 2:    0.004 sec done=      2660 (100.0%) skipped=         0 
    -> Aux basis density formed in    0.1 sec
    -> Solving linear equations - ok (   0.0 sec)
        Auxbasis Hermite Density:
        P|s>                     ...  0.000
        P|p>                     ...  0.000
        P|d>                     ...  0.000
        P|f>                     ...  0.000
        P|g>                     ...  0.000
        Building the Coulomb matrix: 
        J|ss>                          ... done (  0.0 sec) ndone=   131150 nskipped1=     1244 nskipped2=     1683
        J|ps>                          ... done (  0.0 sec) ndone=   162843 nskipped1=     2937 nskipped2=     6548
        J|pp>                          ... done (  0.0 sec) ndone=    67226 nskipped1=       20 nskipped2=     2018
        J|ds>                          ... done (  0.0 sec) ndone=    55033 nskipped1=     3535 nskipped2=     4058
        J|dp>                          ... done (  0.0 sec) ndone=    40395 nskipped1=       10 nskipped2=      935
        J|dd>                          ... done (  0.0 sec) ndone=     7176 nskipped1=        0 nskipped2=        0
        Coulomb matrix built in   0.1 sec

        Total time for Split-RI-J                ...    0.119 sec
          (0) Prelude                            ...    0.000 sec
          (1) Hermite density                    ...    0.000 sec
          (2) Aux basis density                  ...    0.000 sec (inner=  0.0)
          (3) Linear equation solution           ...    0.000 sec
          (4) J-Matrix construction              ...    0.053 sec (inner=  0.1)
        ---------------------------------------------------------

                         ----------------------------
                         !        ITERATION     8   !
                         ----------------------------
   Total Energy        :   -1375.693439587249 Eh
   Energy Change       :      -0.007415589904 Eh
   MAX-DP              :       0.066358784961
   RMS-DP              :       0.001998618746
   Actual Damping      :       0.0000
   Actual Level Shift  :       0.2500 Eh
   Int. Num. El.       :    75.91806218 (UP=   37.95903109 DN=   37.95903109)
   Exchange            :   -75.56659003
   Correlation         :    -3.39112134
   DIIS-Error          :       0.020824291678
   DIIS coefficients:
      0.18858   0.32644   0.01488   0.15287   0.31724

==>> SHARK/AuxDens: NDens=1 Thresh =     2.500000e-11 TCut=    2.500000e-12 Lmax=2 LmaxAux=4
    -> Making Hermite density - ok     0.002 sec
    -> Making Aux-basis density - (lmax=2)
    -> L=0 0:    0.010 sec done=     18013 ( 91.6%) skipped=      1652 
    -> L=1 0:    0.016 sec done=     24937 ( 92.8%) skipped=      1948 
    -> L=1 1:    0.011 sec done=      9783 (100.0%) skipped=         2 
    -> L=2 0:    0.009 sec done=     11913 ( 86.5%) skipped=      1862 
    -> L=2 1:    0.014 sec done=      9201 ( 99.8%) skipped=        14 
    -> L=2 2:    0.004 sec done=      2660 (100.0%) skipped=         0 
    -> Aux basis density formed in    0.1 sec
    -> Solving linear equations - ok (   0.0 sec)
        Auxbasis Hermite Density:
        P|s>                     ...  0.000
        P|p>                     ...  0.000
        P|d>                     ...  0.000
        P|f>                     ...  0.000
        P|g>                     ...  0.000
        Building the Coulomb matrix: 
        J|ss>                          ... done (  0.0 sec) ndone=   131174 nskipped1=     1283 nskipped2=     1720
        J|ps>                          ... done (  0.0 sec) ndone=   162719 nskipped1=     3077 nskipped2=     6532
        J|pp>                          ... done (  0.0 sec) ndone=    67231 nskipped1=       15 nskipped2=     2018
        J|ds>                          ... done (  0.0 sec) ndone=    54951 nskipped1=     3655 nskipped2=     4019
        J|dp>                          ... done (  0.0 sec) ndone=    40395 nskipped1=       10 nskipped2=      935
        J|dd>                          ... done (  0.0 sec) ndone=     7176 nskipped1=        0 nskipped2=        0
        Coulomb matrix built in   0.1 sec

        Total time for Split-RI-J                ...    0.122 sec
          (0) Prelude                            ...    0.000 sec
          (1) Hermite density                    ...    0.000 sec
          (2) Aux basis density                  ...    0.000 sec (inner=  0.0)
          (3) Linear equation solution           ...    0.000 sec
          (4) J-Matrix construction              ...    0.053 sec (inner=  0.1)
        ---------------------------------------------------------

                         ----------------------------
                         !        ITERATION     9   !
                         ----------------------------
   Total Energy        :   -1375.699952012423 Eh
   Energy Change       :      -0.006512425174 Eh
   MAX-DP              :       0.050512011637
   RMS-DP              :       0.001560518304
   Actual Damping      :       0.0000
   Actual Level Shift  :       0.2500 Eh
   Int. Num. El.       :    75.91827147 (UP=   37.95913573 DN=   37.95913573)
   Exchange            :   -75.57103198
   Correlation         :    -3.39113578
   DIIS-Error          :       0.021042434632
   DIIS coefficients:
      0.39954   0.23634  -0.09399   0.13906   0.31905

==>> SHARK/AuxDens: NDens=1 Thresh =     2.500000e-11 TCut=    2.500000e-12 Lmax=2 LmaxAux=4
    -> Making Hermite density - ok     0.002 sec
    -> Making Aux-basis density - (lmax=2)
    -> L=0 0:    0.006 sec done=     17859 ( 90.8%) skipped=      1806 
    -> L=1 0:    0.014 sec done=     24810 ( 92.3%) skipped=      2075 
    -> L=1 1:    0.010 sec done=      9783 (100.0%) skipped=         2 
    -> L=2 0:    0.009 sec done=     11810 ( 85.7%) skipped=      1965 
    -> L=2 1:    0.012 sec done=      9177 ( 99.6%) skipped=        38 
    -> L=2 2:    0.004 sec done=      2660 (100.0%) skipped=         0 
    -> Aux basis density formed in    0.1 sec
    -> Solving linear equations - ok (   0.0 sec)
        Auxbasis Hermite Density:
        P|s>                     ...  0.000
        P|p>                     ...  0.000
        P|d>                     ...  0.000
        P|f>                     ...  0.000
        P|g>                     ...  0.000
        Building the Coulomb matrix: 
        J|ss>                          ... done (  0.0 sec) ndone=   130787 nskipped1=     1477 nskipped2=     1622
        J|ps>                          ... done (  0.0 sec) ndone=   162391 nskipped1=     3447 nskipped2=     6352
        J|pp>                          ... done (  0.0 sec) ndone=    67231 nskipped1=       15 nskipped2=     2018
        J|ds>                          ... done (  0.0 sec) ndone=    54648 nskipped1=     3964 nskipped2=     3839
        J|dp>                          ... done (  0.0 sec) ndone=    40395 nskipped1=       10 nskipped2=      935
        J|dd>                          ... done (  0.0 sec) ndone=     7176 nskipped1=        0 nskipped2=        0
        Coulomb matrix built in   0.1 sec

        Total time for Split-RI-J                ...    0.119 sec
          (0) Prelude                            ...    0.000 sec
          (1) Hermite density                    ...    0.000 sec
          (2) Aux basis density                  ...    0.000 sec (inner=  0.0)
          (3) Linear equation solution           ...    0.000 sec
          (4) J-Matrix construction              ...    0.060 sec (inner=  0.1)
        ---------------------------------------------------------

                         ----------------------------
                         !        ITERATION    10   !
                         ----------------------------
   Total Energy        :   -1375.705012791058 Eh
   Energy Change       :      -0.005060778635 Eh
   MAX-DP              :       0.041094447942
   RMS-DP              :       0.001303367445
   Actual Damping      :       0.0000
   Actual Level Shift  :       0.2500 Eh
   Int. Num. El.       :    75.91840613 (UP=   37.95920306 DN=   37.95920306)
   Exchange            :   -75.57451301
   Correlation         :    -3.39117965
   DIIS-Error          :       0.020812494587
   DIIS coefficients:
      0.65725   0.25536   0.01731  -0.20340   0.27349

==>> SHARK/AuxDens: NDens=1 Thresh =     2.500000e-11 TCut=    2.500000e-12 Lmax=2 LmaxAux=4
    -> Making Hermite density - ok     0.003 sec
    -> Making Aux-basis density - (lmax=2)
    -> L=0 0:    0.011 sec done=     17827 ( 90.7%) skipped=      1838 
    -> L=1 0:    0.020 sec done=     24850 ( 92.4%) skipped=      2035 
    -> L=1 1:    0.010 sec done=      9783 (100.0%) skipped=         2 
    -> L=2 0:    0.006 sec done=     11879 ( 86.2%) skipped=      1896 
    -> L=2 1:    0.012 sec done=      9148 ( 99.3%) skipped=        67 
    -> L=2 2:    0.004 sec done=      2658 ( 99.9%) skipped=         2 
    -> Aux basis density formed in    0.1 sec
    -> Solving linear equations - ok (   0.0 sec)
        Auxbasis Hermite Density:
        P|s>                     ...  0.000
        P|p>                     ...  0.000
        P|d>                     ...  0.000
        P|f>                     ...  0.000
        P|g>                     ...  0.000
        Building the Coulomb matrix: 
        J|ss>                          ... done (  0.0 sec) ndone=   130552 nskipped1=     1659 nskipped2=     1620
        J|ps>                          ... done (  0.0 sec) ndone=   162024 nskipped1=     3778 nskipped2=     6238
        J|pp>                          ... done (  0.0 sec) ndone=    67231 nskipped1=       15 nskipped2=     2018
        J|ds>                          ... done (  0.0 sec) ndone=    54448 nskipped1=     4154 nskipped2=     3716
        J|dp>                          ... done (  0.0 sec) ndone=    40395 nskipped1=       10 nskipped2=      935
        J|dd>                          ... done (  0.0 sec) ndone=     7176 nskipped1=        0 nskipped2=        0
        Coulomb matrix built in   0.1 sec

        Total time for Split-RI-J                ...    0.129 sec
          (0) Prelude                            ...    0.000 sec
          (1) Hermite density                    ...    0.000 sec
          (2) Aux basis density                  ...    0.000 sec (inner=  0.0)
          (3) Linear equation solution           ...    0.000 sec
          (4) J-Matrix construction              ...    0.061 sec (inner=  0.1)
        ---------------------------------------------------------

                         ----------------------------
                         !        ITERATION    11   !
                         ----------------------------
   Total Energy        :   -1375.709137976448 Eh
   Energy Change       :      -0.004125185390 Eh
   MAX-DP              :       0.038897536669
   RMS-DP              :       0.001175730595
   Actual Damping      :       0.0000
   Actual Level Shift  :       0.2500 Eh
   Int. Num. El.       :    75.91850916 (UP=   37.95925458 DN=   37.95925458)
   Exchange            :   -75.57944821
   Correlation         :    -3.39129691
   DIIS-Error          :       0.020359727761
   DIIS coefficients:
      0.83254   0.32882   0.02074  -0.06968  -0.11242

==>> SHARK/AuxDens: NDens=1 Thresh =     2.500000e-11 TCut=    2.500000e-12 Lmax=2 LmaxAux=4
    -> Making Hermite density - ok     0.002 sec
    -> Making Aux-basis density - (lmax=2)
    -> L=0 0:    0.009 sec done=     17924 ( 91.1%) skipped=      1741 
    -> L=1 0:    0.016 sec done=     24556 ( 91.3%) skipped=      2329 
    -> L=1 1:    0.011 sec done=      9783 (100.0%) skipped=         2 
    -> L=2 0:    0.009 sec done=     11877 ( 86.2%) skipped=      1898 
    -> L=2 1:    0.012 sec done=      9130 ( 99.1%) skipped=        85 
    -> L=2 2:    0.004 sec done=      2660 (100.0%) skipped=         0 
    -> Aux basis density formed in    0.1 sec
    -> Solving linear equations - ok (   0.0 sec)
        Auxbasis Hermite Density:
        P|s>                     ...  0.000
        P|p>                     ...  0.000
        P|d>                     ...  0.000
        P|f>                     ...  0.000
        P|g>                     ...  0.000
        Building the Coulomb matrix: 
        J|ss>                          ... done (  0.0 sec) ndone=   130343 nskipped1=     1726 nskipped2=     1591
        J|ps>                          ... done (  0.0 sec) ndone=   161704 nskipped1=     3960 nskipped2=     6092
        J|pp>                          ... done (  0.0 sec) ndone=    67186 nskipped1=       40 nskipped2=     2018
        J|ds>                          ... done (  0.0 sec) ndone=    54368 nskipped1=     4218 nskipped2=     3627
        J|dp>                          ... done (  0.0 sec) ndone=    40365 nskipped1=       25 nskipped2=      935
        J|dd>                          ... done (  0.0 sec) ndone=     7176 nskipped1=        0 nskipped2=        0
        Coulomb matrix built in   0.1 sec

        Total time for Split-RI-J                ...    0.117 sec
          (0) Prelude                            ...    0.000 sec
          (1) Hermite density                    ...    0.000 sec
          (2) Aux basis density                  ...    0.000 sec (inner=  0.0)
          (3) Linear equation solution           ...    0.000 sec
          (4) J-Matrix construction              ...    0.052 sec (inner=  0.1)
        ---------------------------------------------------------

                         ----------------------------
                         !        ITERATION    12   !
                         ----------------------------
   Total Energy        :   -1375.712885730829 Eh
   Energy Change       :      -0.003747754381 Eh
   MAX-DP              :       0.057361845713
   RMS-DP              :       0.001544526128
   Actual Damping      :       0.0000
   Actual Level Shift  :       0.2500 Eh
   Int. Num. El.       :    75.91854054 (UP=   37.95927027 DN=   37.95927027)
   Exchange            :   -75.58426902
   Correlation         :    -3.39141882
   DIIS-Error          :       0.019717296132
   DIIS coefficients:
      0.59312   0.72640   0.15188  -0.21321  -0.25819

==>> SHARK/AuxDens: NDens=1 Thresh =     2.500000e-11 TCut=    2.500000e-12 Lmax=2 LmaxAux=4
    -> Making Hermite density - ok     0.003 sec
    -> Making Aux-basis density - (lmax=2)
    -> L=0 0:    0.012 sec done=     18593 ( 94.5%) skipped=      1072 
    -> L=1 0:    0.016 sec done=     25085 ( 93.3%) skipped=      1800 
    -> L=1 1:    0.012 sec done=      9785 (100.0%) skipped=         0 
    -> L=2 0:    0.009 sec done=     12009 ( 87.2%) skipped=      1766 
    -> L=2 1:    0.012 sec done=      9148 ( 99.3%) skipped=        67 
    -> L=2 2:    0.004 sec done=      2660 (100.0%) skipped=         0 
    -> Aux basis density formed in    0.1 sec
    -> Solving linear equations - ok (   0.0 sec)
        Auxbasis Hermite Density:
        P|s>                     ...  0.000
        P|p>                     ...  0.000
        P|d>                     ...  0.000
        P|f>                     ...  0.000
        P|g>                     ...  0.000
        Building the Coulomb matrix: 
        J|ss>                          ... done (  0.0 sec) ndone=   130975 nskipped1=     1431 nskipped2=     1709
        J|ps>                          ... done (  0.0 sec) ndone=   162309 nskipped1=     3364 nskipped2=     6411
        J|pp>                          ... done (  0.0 sec) ndone=    67181 nskipped1=       35 nskipped2=     2018
        J|ds>                          ... done (  0.0 sec) ndone=    54646 nskipped1=     3911 nskipped2=     3857
        J|dp>                          ... done (  0.0 sec) ndone=    40360 nskipped1=       25 nskipped2=      935
        J|dd>                          ... done (  0.0 sec) ndone=     7176 nskipped1=        0 nskipped2=        0
        Coulomb matrix built in   0.1 sec

        Total time for Split-RI-J                ...    0.132 sec
          (0) Prelude                            ...    0.000 sec
          (1) Hermite density                    ...    0.000 sec
          (2) Aux basis density                  ...    0.000 sec (inner=  0.0)
          (3) Linear equation solution           ...    0.000 sec
          (4) J-Matrix construction              ...    0.063 sec (inner=  0.1)
        ---------------------------------------------------------

                         ----------------------------
                         !        ITERATION    13   !
                         ----------------------------
   Total Energy        :   -1375.718006989523 Eh
   Energy Change       :      -0.005121258694 Eh
   MAX-DP              :       0.113124027907
   RMS-DP              :       0.002962638703
   Actual Damping      :       0.0000
   Actual Level Shift  :       0.2500 Eh
   Int. Num. El.       :    75.91808281 (UP=   37.95904141 DN=   37.95904141)
   Exchange            :   -75.59140647
   Correlation         :    -3.39152486
   DIIS-Error          :       0.018542889086
   DIIS coefficients:
     -0.59222   3.08332  -0.56487  -0.44366  -0.48256

==>> SHARK/AuxDens: NDens=1 Thresh =     2.500000e-11 TCut=    2.500000e-12 Lmax=2 LmaxAux=4
    -> Making Hermite density - ok     0.003 sec
    -> Making Aux-basis density - (lmax=2)
    -> L=0 0:    0.007 sec done=     18724 ( 95.2%) skipped=       941 
    -> L=1 0:    0.018 sec done=     25433 ( 94.6%) skipped=      1452 
    -> L=1 1:    0.012 sec done=      9785 (100.0%) skipped=         0 
    -> L=2 0:    0.010 sec done=     12269 ( 89.1%) skipped=      1506 
    -> L=2 1:    0.013 sec done=      9204 ( 99.9%) skipped=        11 
    -> L=2 2:    0.004 sec done=      2660 (100.0%) skipped=         0 
    -> Aux basis density formed in    0.1 sec
    -> Solving linear equations - ok (   0.0 sec)
        Auxbasis Hermite Density:
        P|s>                     ...  0.000
        P|p>                     ...  0.000
        P|d>                     ...  0.000
        P|f>                     ...  0.000
        P|g>                     ...  0.000
        Building the Coulomb matrix: 
        J|ss>                          ... done (  0.0 sec) ndone=   131734 nskipped1=     1066 nskipped2=     1793
        J|ps>                          ... done (  0.0 sec) ndone=   163343 nskipped1=     2664 nskipped2=     6775
        J|pp>                          ... done (  0.0 sec) ndone=    67226 nskipped1=       20 nskipped2=     2018
        J|ds>                          ... done (  0.0 sec) ndone=    55402 nskipped1=     3217 nskipped2=     4325
        J|dp>                          ... done (  0.0 sec) ndone=    40395 nskipped1=       10 nskipped2=      935
        J|dd>                          ... done (  0.0 sec) ndone=     7176 nskipped1=        0 nskipped2=        0
        Coulomb matrix built in   0.1 sec

        Total time for Split-RI-J                ...    0.131 sec
          (0) Prelude                            ...    0.000 sec
          (1) Hermite density                    ...    0.000 sec
          (2) Aux basis density                  ...    0.000 sec (inner=  0.0)
          (3) Linear equation solution           ...    0.000 sec
          (4) J-Matrix construction              ...    0.062 sec (inner=  0.1)
        ---------------------------------------------------------

                         ----------------------------
                         !        ITERATION    14   !
                         ----------------------------
   Total Energy        :   -1375.726139859622 Eh
   Energy Change       :      -0.008132870099 Eh
   MAX-DP              :       0.081055040097
   RMS-DP              :       0.001882300915
   Actual Damping      :       0.0000
   Actual Level Shift  :       0.2500 Eh
   Int. Num. El.       :    75.91637547 (UP=   37.95818773 DN=   37.95818773)
   Exchange            :   -75.59332101
   Correlation         :    -3.39122362
   DIIS-Error          :       0.015641660494
   DIIS coefficients:
      0.42596   0.43119   0.99129  -0.74295  -0.10550

[...]
Angular grid pruning method      GridPruning ... 4 (adaptive)
Weight generation scheme         WeightScheme... Becke
Basis function cutoff            BFCut       ... 1.0000e-11
Integration weight cutoff        WCut        ... 1.0000e-14
Angular grids for H and He will be reduced by one unit
Partially contracted basis set               ... on
Rotationally invariant grid construction     ... off

Total number of grid points                  ...     5153
Total number of batches                      ...       84
Average number of points per batch           ...       61
Average number of grid points per atom       ...      859
UseSFitting                                  ... on

GRIDX 2
-------
General Integration Accuracy     IntAcc      ... 4.020
Radial Grid Type                 RadialGrid  ... OptM3 with GC (2021)
Angular Grid (max. ang.)         AngularGrid ... 2 (Lebedev-110)
Angular grid pruning method      GridPruning ... 4 (adaptive)
Weight generation scheme         WeightScheme... Becke
Basis function cutoff            BFCut       ... 1.0000e-11
Integration weight cutoff        WCut        ... 1.0000e-14
Angular grids for H and He will be reduced by one unit
Partially contracted basis set               ... on
Rotationally invariant grid construction     ... off

Total number of grid points                  ...    12131
Total number of batches                      ...      192
Average number of points per batch           ...       63
Average number of grid points per atom       ...     2022
UseSFitting                                  ... on

GRIDX 3
-------
General Integration Accuracy     IntAcc      ... 4.338
Radial Grid Type                 RadialGrid  ... OptM3 with GC (2021)
Angular Grid (max. ang.)         AngularGrid ... 3 (Lebedev-194)
Angular grid pruning method      GridPruning ... 4 (adaptive)
Weight generation scheme         WeightScheme... Becke
Basis function cutoff            BFCut       ... 1.0000e-11
Integration weight cutoff        WCut        ... 1.0000e-14
Angular grids for H and He will be reduced by one unit
Partially contracted basis set               ... on
Rotationally invariant grid construction     ... off

Total number of grid points                  ...    27802
Total number of batches                      ...      437
Average number of points per batch           ...       63
Average number of grid points per atom       ...     4634
UseSFitting                                  ... on

Time for X-Grid setup             =    0.383 sec


--------------------
CPCM SOLVATION MODEL
--------------------
CPCM parameters:
  Epsilon                                         ...      69.0000
  Refrac                                          ...       1.3400
  Rsolv                                           ...       1.3000
  Surface type                                    ... GAUSSIAN VDW
  Epsilon function type                           ...         CPCM
Radii:
 Radius for O  used is    3.4469 Bohr (=   1.8240 Ang.)
 Radius for S  used is    4.0818 Bohr (=   2.1600 Ang.)
 Radius for Ca used is    5.2383 Bohr (=   2.7720 Ang.)
Calculating surface                               ...        done! (  0.0s)
GEPOL surface points                              ...          476
GEPOL Volume                                      ...    1161.3026
GEPOL Surface-area                                ...     657.2802
Calculating surface distance matrix               ...        done! (  0.0s)
Performing Cholesky decomposition & store         ...        done! (  0.0s)
Overall time for CPCM initialization              ...                 0.0s
--------------
SCF ITERATIONS
--------------
ITER       Energy         Delta-E        Max-DP      RMS-DP      [F,P]     Damp
               ***  Starting incremental Fock matrix formation  ***
                      *** Initiating the SOSCF procedure ***
                      *** Re-Reading the Fockian *** 
                      *** Removing any level shift *** 
ITER      Energy       Delta-E        Grad      Rot      Max-DP    RMS-DP
  0  -1375.93490373 -1375.9349037332  0.002734  0.002734  0.003672  0.000232
               *** Restarting incremental Fock matrix formation ***
  1  -1375.93516321  -0.0002594818  0.000917  0.001774  0.001975  0.000119
  2  -1375.93518728  -0.0000240687  0.000115  0.000628  0.001117  0.000036
  3  -1375.93518739  -0.0000001087  0.000178  0.000371  0.000664  0.000020
  4  -1375.93518822  -0.0000008231  0.000043  0.000376  0.000669  0.000016
  5  -1375.93518838  -0.0000001659  0.000030  0.000882  0.001528  0.000037
  6  -1375.93518854  -0.0000001627  0.000036  0.000688  0.001121  0.000029
  7  -1375.93518864  -0.0000000914  0.000023  0.000423  0.000639  0.000016
  8  -1375.93518871  -0.0000000734  0.000021  0.001268  0.001955  0.000052
  9  -1375.93518883  -0.0000001214  0.000020  0.000350  0.000518  0.000014
 10  -1375.93518885  -0.0000000168  0.000019  0.000105  0.000209  0.000005
 11  -1375.93518886  -0.0000000110  0.000011  0.000081  0.000158  0.000004
 12  -1375.93518886  -0.0000000062  0.000007  0.000176  0.000325  0.000007
 13  -1375.93518887  -0.0000000041  0.000008  0.000866  0.001576  0.000033
 14  -1375.93518889  -0.0000000218  0.000017  0.001277  0.002320  0.000048
 15  -1375.93518892  -0.0000000286  0.000023  0.001522  0.002777  0.000057
 16  -1375.93518897  -0.0000000526  0.000021  0.002487  0.004511  0.000093
 17  -1375.93518905  -0.0000000797  0.000009  0.000557  0.000953  0.000022
 18  -1375.93518907  -0.0000000219  0.000008  0.000055  0.000150  0.000005
 19  -1375.93518908  -0.0000000031  0.000004  0.000068  0.000110  0.000003
                  ***Gradient check signals convergence***
              ***Rediagonalizing the Fockian in SOSCF/NRSCF***

               *****************************************************
               *                     SUCCESS                       *
               *           SCF CONVERGED AFTER  20 CYCLES          *
               *****************************************************

Old exchange energy                            =    -18.983081923 Eh
New exchange energy                            =    -18.983063231 Eh
Exchange energy change after final integration =      0.000018692 Eh
Total energy after final integration           =  -1375.935170386 Eh
Final COS-X integration done in                =     2.842 sec
Total Energy       :        -1375.93517039 Eh          -37441.09945 eV
  Last Energy change         ...   -1.4561e-09  Tolerance :   1.0000e-08
  Last MAX-Density change    ...    7.9936e-15  Tolerance :   1.0000e-07
             **** THE GBW FILE WAS UPDATED (CaSO4_DFT.gbw) ****
             **** DENSITY CaSO4_DFT.scfp WAS UPDATED ****
             **** ENERGY FILE WAS UPDATED (CaSO4_DFT.en.tmp) ****
             **** THE GBW FILE WAS UPDATED (CaSO4_DFT.gbw) ****
             **** DENSITY CaSO4_DFT.scfp WAS UPDATED ****
Total SCF time: 0 days 0 hours 0 min 37 sec 

Maximum memory used throughout the entire SCF-calculation: 57.5 MB

-------------------------   --------------------
FINAL SINGLE POINT ENERGY     -1375.935170385957
-------------------------   --------------------

------------------------------------------------------------------------------
                         ORCA SCF GRADIENT CALCULATION
------------------------------------------------------------------------------

 ... reading COSX grid (gridx3)
Gradient of the Kohn-Sham DFT energy:
Kohn-Sham wavefunction type      ... RKS
Hartree-Fock exchange scaling    ...    0.200
Number of operators              ...    1
Number of atoms                  ...    6
Basis set dimensions             ...   98
Integral neglect threshold       ... 2.5e-11
Integral primitive cutoff        ... 2.5e-12
SHARK Integral package           ... ON

Nuc. rep. gradient       (SHARK) ... done (  0.0 sec)
HCore & Overlap gradient (SHARK) ... done (  0.0 sec)
RI-J gradient            (SHARK) ... done (  0.5 sec)
COSX-gradient                    ... done (  3.2 sec)
Exchange-correlation gradient    ... done

------------------
CARTESIAN GRADIENT
------------------

   1   O   :   -0.002403774    0.000207554   -0.004773008
   2   S   :   -0.004185096   -0.000596349   -0.003961644
   3   O   :   -0.000098315    0.000039783    0.000245056
   4   O   :   -0.003407572    0.001892098   -0.003037145
   5   O   :   -0.002619874   -0.000835329   -0.001648905
   6   Ca  :    0.012315339   -0.001261876    0.013366003

Difference to translation invariance:
           :   -0.0003992920   -0.0005541195    0.0001903579

Difference to rotation invariance:
           :   -0.0024800834   -0.0027583520    0.0016610405

Norm of the cartesian gradient     ...    0.0207085873
RMS gradient                       ...    0.0048810608
MAX gradient                       ...    0.0133660033

-------
TIMINGS
-------

Total SCF gradient time            ...        5.292 sec

One electron gradient       ....       0.030 sec  (  0.6%)
RI-J Coulomb gradient       ....       0.461 sec  (  8.7%)
COSX gradient               ....       3.160 sec  ( 59.7%)
XC gradient                 ....       1.209 sec  ( 22.8%)
CPCM gradient               ....       0.123 sec  (  2.3%)
   A-Matrix (El+Nuc)        ....       0.008 sec  (  0.2%)
   Potential                ....       0.114 sec  (  2.2%)

Maximum memory used throughout the entire SCFGRAD-calculation: 45.7 MB
------------------------------------------------------------------------------
                         ORCA GEOMETRY RELAXATION STEP
------------------------------------------------------------------------------

Reading the OPT-File                    .... done
Getting information on internals        .... done
Copying old internal coords+grads       .... done
Making the new internal coordinates     .... (new redundants).... done
Validating the new internal coordinates .... (new redundants).... done
Calculating the B-matrix                .... done
Calculating the G,G- and P matrices     .... done
Transforming gradient to internals      .... done
Projecting the internal gradient        .... done
Number of atoms                         ....   6
Number of internal coordinates          ....  47
Current Energy                          .... -1375.935170386 Eh
Current gradient norm                   ....     0.020708587 Eh/bohr
Maximum allowed component of the step   ....  0.300
Current trust radius                    ....  0.300
Resetting Hessian after 50 BFGS Update Steps....
Build internal Hessian                  .... (Almloef) done
Updating Hessian with the last 5 steps  .... done
Forming the augmented Hessian           .... done
Diagonalizing the augmented Hessian     .... done
Last element of RFO vector              ....  0.733425447
Lowest eigenvalues of augmented Hessian:
 -0.008913225  0.007981324  0.010376848  0.031462226  0.117973642
Length of the computed step             ....  0.926842530
Warning: the length of the step is outside the trust region - taking restricted step instead
The input lambda is                     ....    -0.008913
   iter:   1  x=   -0.013557  g=  165.614914 f(x)=     0.769037
   iter:   2  x=   -0.019417  g=   54.592207 f(x)=     0.319931
   iter:   3  x=   -0.025427  g=   20.317250 f(x)=     0.122102
   iter:   4  x=   -0.029410  g=    9.511966 f(x)=     0.037887
   iter:   5  x=   -0.030527  g=    6.284814 f(x)=     0.007017
   iter:   6  x=   -0.030591  g=    5.649427 f(x)=     0.000363
   iter:   7  x=   -0.030591  g=    5.615510 f(x)=     0.000001
   iter:   8  x=   -0.030591  g=    5.615408 f(x)=     0.000000
   iter:   9  x=   -0.030591  g=    5.615408 f(x)=     0.000000
The output lambda is                    ....    -0.030591 (9 iterations)
The final length of the internal step   ....  0.300000000
Converting the step to cartesian space:
 Initial RMS(Int)=    0.0437594974
Transforming coordinates:
 Iter   0:  RMS(Cart)=    0.0344735337 RMS(Int)=    0.0437948347
 Iter   1:  RMS(Cart)=    0.0000762586 RMS(Int)=    0.0000651571
 Iter   2:  RMS(Cart)=    0.0000003218 RMS(Int)=    0.0000002871
 Iter   3:  RMS(Cart)=    0.0000000011 RMS(Int)=    0.0000000009
done
Storing new coordinates                 .... done

                                .--------------------.
          ----------------------|Geometry convergence|-------------------------
          Item                value                   Tolerance       Converged
          ---------------------------------------------------------------------
          Energy change      -0.0000353506            0.0000050000      NO
          RMS gradient        0.0014047348            0.0001000000      NO
          MAX gradient        0.0051727202            0.0003000000      NO
          RMS step            0.0437594974            0.0020000000      NO
          MAX step            0.1615936380            0.0040000000      NO
          ........................................................
          Max(Bonds)      0.0855      Max(Angles)    0.86
          Max(Dihed)        0.63      Max(Improp)    0.00
          ---------------------------------------------------------------------

The optimization has not yet converged - more geometry cycles are needed


    ---------------------------------------------------------------------------
                         Redundant Internal Coordinates
                            (Angstroem and degrees)

        Definition                    Value    dE/dq     Step     New-Value
    ----------------------------------------------------------------------------
     1. B(S   1,O   0)                1.5142  0.000079  0.0004    1.5146   
     2. B(O   2,S   1)                1.5268  0.000145 -0.0002    1.5266   
     3. B(O   3,S   1)                1.5172 -0.000176  0.0004    1.5177   
     4. B(O   4,S   1)                1.5177 -0.000056  0.0003    1.5180   
     5. B(Ca  5,S   1)                4.3789 -0.005048  0.0810    4.4599   
     6. B(Ca  5,O   3)                4.1917 -0.005009  0.0834    4.2751   
     7. B(Ca  5,O   0)                3.9598 -0.005173  0.0855    4.0453   
     8. B(Ca  5,O   4)                4.3180 -0.003679  0.0625    4.3806   
     9. A(S   1,O   0,Ca  5)           95.75 -0.000088    0.02     95.77   
    10. A(O   2,S   1,O   3)          108.52  0.000008   -0.09    108.44   
    11. A(O   3,S   1,Ca  5)           72.90 -0.000092    0.28     73.18   
    12. A(O   0,S   1,O   4)          110.11  0.000070    0.06    110.17   
    13. A(O   3,S   1,O   4)          110.39 -0.000009    0.07    110.45   
    14. A(O   0,S   1,Ca  5)           64.13 -0.000149    0.36     64.49   
    15. A(O   0,S   1,O   3)          110.72  0.000044    0.03    110.75   
    16. A(O   0,S   1,O   2)          108.58  0.000012   -0.06    108.52   
    17. A(O   4,S   1,Ca  5)           77.70  0.000376   -0.52     77.18   
    18. A(O   2,S   1,O   4)          108.45 -0.000129   -0.01    108.44   
    19. A(S   1,O   3,Ca  5)           86.85 -0.000108    0.10     86.96   
    20. A(S   1,O   4,Ca  5)           82.22 -0.000564    0.86     83.08   
    21. A(S   1,Ca  5,O   3)           20.24  0.000200   -0.38     19.86   
    22. A(O   0,Ca  5,O   3)           35.49  0.000420   -0.74     34.75   
    23. A(O   0,Ca  5,S   1)           20.12  0.000237   -0.39     19.74   
    24. A(O   3,Ca  5,O   4)           34.01  0.000296   -0.57     33.44   
    25. A(S   1,Ca  5,O   4)           20.08  0.000188   -0.34     19.74   
    26. A(O   0,Ca  5,O   4)           34.60  0.000345   -0.58     34.02   
    27. D(O   2,S   1,O   0,Ca  5)   -176.85  0.000228   -0.49   -177.34   
    28. D(O   4,S   1,O   0,Ca  5)     64.54  0.000337   -0.47     64.07   
    29. D(O   3,S   1,O   0,Ca  5)    -57.81  0.000271   -0.62    -58.42   
    30. D(Ca  5,O   3,S   1,O   4)    -69.38 -0.000396    0.49    -68.89   
    31. D(Ca  5,O   3,S   1,O   2)    171.89 -0.000237    0.52    172.41   
    32. D(Ca  5,O   3,S   1,O   0)     52.81 -0.000283    0.63     53.44   
    33. D(Ca  5,O   4,S   1,O   3)     66.29  0.000088    0.03     66.33   
    34. D(Ca  5,O   4,S   1,O   2)   -174.94  0.000013   -0.04   -174.98   
    35. D(Ca  5,O   4,S   1,O   0)    -56.25 -0.000009   -0.09    -56.34   
    36. D(O   3,Ca  5,S   1,O   0)   -124.09 -0.000235    0.42   -123.67   
    37. D(O   0,Ca  5,S   1,O   4)   -119.80  0.000092   -0.23   -120.03   
    38. D(O   0,Ca  5,S   1,O   3)    124.09  0.000235   -0.42    123.67   
    39. D(O   4,Ca  5,O   0,S   1)    -31.65 -0.000041    0.15    -31.51   
    40. D(O   3,Ca  5,S   1,O   4)    116.11 -0.000143    0.19    116.30   
    41. D(O   0,Ca  5,O   4,S   1)     31.72  0.000123   -0.21     31.51   
    42. D(O   3,Ca  5,O   0,S   1)     29.57 -0.000117    0.16     29.74   
    43. D(O   4,Ca  5,O   3,S   1)     33.45  0.000096   -0.13     33.33   
    44. D(O   0,Ca  5,O   3,S   1)    -29.40  0.000058   -0.15    -29.55   
    45. D(O   4,Ca  5,S   1,O   3)   -116.11  0.000143   -0.19   -116.30   
    46. D(O   3,Ca  5,O   4,S   1)    -33.74 -0.000117    0.19    -33.54   
    47. D(O   4,Ca  5,S   1,O   0)    119.80 -0.000092    0.23    120.03   
    ----------------------------------------------------------------------------




    ----------------------------------------------------------------------------
                                  WARNING !!!
       The optimization did not converge but reached the maximum number of
       optimization cycles.
       Please check your results very carefully.
    ----------------------------------------------------------------------------



                            ***************************************
                            *     ORCA property calculations      *
                            ***************************************

                                    ---------------------
                                    Active property flags
                                    ---------------------
   (+) Dipole Moment


------------------------------------------------------------------------------
                       ORCA ELECTRIC PROPERTIES CALCULATION
------------------------------------------------------------------------------

Dipole Moment Calculation                       ... on
Quadrupole Moment Calculation                   ... off
Polarizability Calculation                      ... off
GBWName                                         ... CaSO4_DFT.gbw
Electron density                                ... CaSO4_DFT.scfp
The origin for moment calculation is the CENTER OF MASS  = ( 3.751792, -0.218938 -0.952674)

-------------
DIPOLE MOMENT
-------------
                                X             Y             Z
Electronic contribution:     22.08975      -0.11330      23.45127
Nuclear contribution   :      0.11690      -0.00138       0.12309
                        -----------------------------------------
Total Dipole Moment    :     22.20665      -0.11467      23.57436
                        -----------------------------------------
Magnitude (a.u.)       :     32.38671
Magnitude (Debye)      :     82.32047



--------------------
Rotational spectrum 
--------------------
 
Rotational constants in cm-1:     0.169729     0.025392     0.025376 
Rotational constants in MHz :  5088.336058   761.224818   760.755577 

 Dipole components along the rotational axes: 
x,y,z [a.u.] :    32.385959    -0.216412    -0.042061 
x,y,z [Debye]:    82.318565    -0.550076    -0.106909 

 

Timings for individual modules:

Sum of individual times         ...     4860.121 sec (=  81.002 min)
GTO integral calculation        ...       21.582 sec (=   0.360 min)   0.4 %
SCF iterations                  ...     4172.358 sec (=  69.539 min)  85.8 %
SCF Gradient evaluation         ...      662.474 sec (=  11.041 min)  13.6 %
Geometry relaxation             ...        3.706 sec (=   0.062 min)   0.1 %
                             ****ORCA TERMINATED NORMALLY****
TOTAL RUN TIME: 0 days 1 hours 21 minutes 17 seconds 521 msec
