
                                 *****************
                                 * O   R   C   A *
                                 *****************

                                            #,                                       
                                            ###                                      
                                            ####                                     
                                            #####                                    
                                            ######                                   
                                           ########,                                 
                                     ,,################,,,,,                         
                               ,,#################################,,                 
                          ,,##########################################,,             
                       ,#########################################, ''#####,          
                    ,#############################################,,   '####,        
                  ,##################################################,,,,####,       
                ,###########''''           ''''###############################       
              ,#####''   ,,,,##########,,,,          '''####'''          '####       
            ,##' ,,,,###########################,,,                        '##       
           ' ,,###''''                  '''############,,,                           
         ,,##''                                '''############,,,,        ,,,,,,###''
      ,#''                                            '''#######################'''  
     '                                                          ''''####''''         
             ,#######,   #######,   ,#######,      ##                                
            ,#'     '#,  ##    ##  ,#'     '#,    #''#        ######   ,####,        
            ##       ##  ##   ,#'  ##            #'  '#       #        #'  '#        
            ##       ##  #######   ##           ,######,      #####,   #    #        
            '#,     ,#'  ##    ##  '#,     ,#' ,#      #,         ##   #,  ,#        
             '#######'   ##     ##  '#######'  #'      '#     #####' # '####'        



                  #######################################################
                  #                        -***-                        #
                  #          Department of theory and spectroscopy      #
                  #    Directorship and core code : Frank Neese         #
                  #        Max Planck Institute fuer Kohlenforschung    #
                  #                Kaiser Wilhelm Platz 1               #
                  #                 D-45470 Muelheim/Ruhr               #
                  #                      Germany                        #
                  #                                                     #
                  #                  All rights reserved                #
                  #                        -***-                        #
                  #######################################################


                         Program Version 5.0.4 -  RELEASE  -


 With contributions from (in alphabetic order):
   Daniel Aravena         : Magnetic Suceptibility
   Michael Atanasov       : Ab Initio Ligand Field Theory (pilot matlab implementation)
   Alexander A. Auer      : GIAO ZORA, VPT2 properties, NMR spectrum
   Ute Becker             : Parallelization
   Giovanni Bistoni       : ED, misc. LED, open-shell LED, HFLD
   Martin Brehm           : Molecular dynamics
   Dmytro Bykov           : SCF Hessian
   Vijay G. Chilkuri      : MRCI spin determinant printing, contributions to CSF-ICE
   Dipayan Datta          : RHF DLPNO-CCSD density
   Achintya Kumar Dutta   : EOM-CC, STEOM-CC
   Dmitry Ganyushin       : Spin-Orbit,Spin-Spin,Magnetic field MRCI
   Miquel Garcia          : C-PCM and meta-GGA Hessian, CC/C-PCM, Gaussian charge scheme
   Yang Guo               : DLPNO-NEVPT2, F12-NEVPT2, CIM, IAO-localization
   Andreas Hansen         : Spin unrestricted coupled pair/coupled cluster methods
   Benjamin Helmich-Paris : MC-RPA, TRAH-SCF, COSX integrals
   Lee Huntington         : MR-EOM, pCC
   Robert Izsak           : Overlap fitted RIJCOSX, COSX-SCS-MP3, EOM
   Marcus Kettner         : VPT2
   Christian Kollmar      : KDIIS, OOCD, Brueckner-CCSD(T), CCSD density, CASPT2, CASPT2-K
   Simone Kossmann        : Meta GGA functionals, TD-DFT gradient, OOMP2, MP2 Hessian
   Martin Krupicka        : Initial AUTO-CI
   Lucas Lang             : DCDCAS
   Marvin Lechner         : AUTO-CI (C++ implementation), FIC-MRCC
   Dagmar Lenk            : GEPOL surface, SMD
   Dimitrios Liakos       : Extrapolation schemes; Compound Job, initial MDCI parallelization
   Dimitrios Manganas     : Further ROCIS development; embedding schemes
   Dimitrios Pantazis     : SARC Basis sets
   Anastasios Papadopoulos: AUTO-CI, single reference methods and gradients
   Taras Petrenko         : DFT Hessian,TD-DFT gradient, ASA, ECA, R-Raman, ABS, FL, XAS/XES, NRVS
   Peter Pinski           : DLPNO-MP2, DLPNO-MP2 Gradient
   Christoph Reimann      : Effective Core Potentials
   Marius Retegan         : Local ZFS, SOC
   Christoph Riplinger    : Optimizer, TS searches, QM/MM, DLPNO-CCSD(T), (RO)-DLPNO pert. Triples
   Tobias Risthaus        : Range-separated hybrids, TD-DFT gradient, RPA, STAB
   Michael Roemelt        : Original ROCIS implementation
   Masaaki Saitow         : Open-shell DLPNO-CCSD energy and density
   Barbara Sandhoefer     : DKH picture change effects
   Avijit Sen             : IP-ROCIS
   Kantharuban Sivalingam : CASSCF convergence, NEVPT2, FIC-MRCI
   Bernardo de Souza      : ESD, SOC TD-DFT
   Georgi Stoychev        : AutoAux, RI-MP2 NMR, DLPNO-MP2 response
   Willem Van den Heuvel  : Paramagnetic NMR
   Boris Wezisla          : Elementary symmetry handling
   Frank Wennmohs         : Technical directorship


 We gratefully acknowledge several colleagues who have allowed us to
 interface, adapt or use parts of their codes:
   Stefan Grimme, W. Hujo, H. Kruse, P. Pracht,  : VdW corrections, initial TS optimization,
                  C. Bannwarth, S. Ehlert          DFT functionals, gCP, sTDA/sTD-DF
   Ed Valeev, F. Pavosevic, A. Kumar             : LibInt (2-el integral package), F12 methods
   Garnet Chan, S. Sharma, J. Yang, R. Olivares  : DMRG
   Ulf Ekstrom                                   : XCFun DFT Library
   Mihaly Kallay                                 : mrcc  (arbitrary order and MRCC methods)
   Jiri Pittner, Ondrej Demel                    : Mk-CCSD
   Frank Weinhold                                : gennbo (NPA and NBO analysis)
   Christopher J. Cramer and Donald G. Truhlar   : smd solvation model
   Lars Goerigk                                  : TD-DFT with DH, B97 family of functionals
   V. Asgeirsson, H. Jonsson                     : NEB implementation
   FAccTs GmbH                                   : IRC, NEB, NEB-TS, DLPNO-Multilevel, CI-OPT
                                                   MM, QMMM, 2- and 3-layer-ONIOM, Crystal-QMMM,
                                                   LR-CPCM, SF, NACMEs, symmetry and pop. for TD-DFT,
                                                   nearIR, NL-DFT gradient (VV10), updates on ESD,
                                                   ML-optimized integration grids
   S Lehtola, MJT Oliveira, MAL Marques          : LibXC Library
   Liviu Ungur et al                             : ANISO software


 Your calculation uses the libint2 library for the computation of 2-el integrals
 For citations please refer to: http://libint.valeyev.net

 Your ORCA version has been built with support for libXC version: 5.1.0
 For citations please refer to: https://tddft.org/programs/libxc/

 This ORCA versions uses:
   CBLAS   interface :  Fast vector & matrix operations
   LAPACKE interface :  Fast linear algebra routines
   SCALAPACK package :  Parallel linear algebra routines
   Shared memory     :  Shared parallel matrices
   BLAS/LAPACK       :  OpenBLAS 0.3.15  USE64BITINT DYNAMIC_ARCH NO_AFFINITY SkylakeX SINGLE_THREADED
        Core in use  :  SkylakeX
   Copyright (c) 2011-2014, The OpenBLAS Project


================================================================================

----- Orbital basis set information -----
Your calculation utilizes the basis: def2-SVP
   F. Weigend and R. Ahlrichs, Phys. Chem. Chem. Phys. 7, 3297 (2005).

----- AuxJ basis set information -----
Your calculation utilizes the auxiliary basis: def2/J
   F. Weigend, Phys. Chem. Chem. Phys. 8, 1057 (2006).

================================================================================
                                        WARNINGS
                       Please study these warnings very carefully!
================================================================================


WARNING: Geometry Optimization
  ===> : Switching off AutoStart
         For restart on a previous wavefunction, please use MOREAD

INFO   : the flag for use of the SHARK integral package has been found!

================================================================================
                                       INPUT FILE
================================================================================
NAME = Pyrimidine_DFT.inp
|  1> ## avogadro generated ORCA input file 
|  2> # Advanced Mode
|  3> # 
|  4> ! B3LYP OPT def2-SVP NormalPrint defgrid2 NormalSCF 
|  5> 
|  6> ! CPCM
|  7> %cpcm
|  8> epsilon 69.0
|  9> refrac 1.34
| 10> end
| 11> 
| 12> %scf
| 13> 	MaxIter 125
| 14> 	CNVDIIS 1
| 15> 	CNVSOSCF 1 
| 16> end
| 17> 
| 18> * xyz 0 1
| 19>    C       -0.75978        1.16699        0.00561
| 20>    C        0.61593        1.18874        0.01205
| 21>    N        1.37744        0.07879        0.01509
| 22>    C        0.70755       -1.08447        0.01141
| 23>    N       -0.62713       -1.22766        0.00510
| 24>    C       -1.33512       -0.08283        0.00232
| 25>    H       -1.34976        2.07226        0.00327
| 26>    H        1.16307        2.12690        0.01505
| 27>    H        1.29961       -1.99293        0.01375
| 28>    H       -2.41431       -0.20461       -0.00278
| 29> *
| 30> 
| 31> 
| 32>                          ****END OF INPUT****
================================================================================

                       *****************************
                       * Geometry Optimization Run *
                       *****************************

Geometry optimization settings:
Update method            Update   .... BFGS
Choice of coordinates    CoordSys .... Z-matrix Internals
Initial Hessian          InHess   .... Almoef's Model

Convergence Tolerances:
Energy Change            TolE     ....  5.0000e-06 Eh
Max. Gradient            TolMAXG  ....  3.0000e-04 Eh/bohr
RMS Gradient             TolRMSG  ....  1.0000e-04 Eh/bohr
Max. Displacement        TolMAXD  ....  4.0000e-03 bohr
RMS Displacement         TolRMSD  ....  2.0000e-03 bohr
Strict Convergence                ....  False
------------------------------------------------------------------------------
                        ORCA OPTIMIZATION COORDINATE SETUP
------------------------------------------------------------------------------

The optimization will be done in new redundant internal coordinates
Making redundant internal coordinates   ...  (new redundants) done
Evaluating the initial hessian          ...  (Almloef) done
Evaluating the coordinates              ...  done
Calculating the B-matrix                .... done
Calculating the G-matrix                .... done
Diagonalizing the G-matrix              .... done
The first mode is                       ....   16
The number of degrees of freedom        ....   24

    -----------------------------------------------------------------
                    Redundant Internal Coordinates


    -----------------------------------------------------------------
         Definition                    Initial Value    Approx d2E/dq
    -----------------------------------------------------------------
      1. B(C   1,C   0)                  1.3759         0.658020   
      2. B(N   2,C   1)                  1.3461         0.657610   
      3. B(C   3,N   2)                  1.3424         0.666617   
      4. B(N   4,C   3)                  1.3424         0.666641   
      5. B(C   5,N   4)                  1.3461         0.657612   
      6. B(C   5,C   0)                  1.3759         0.658034   
      7. B(H   6,C   0)                  1.0806         0.372816   
      8. B(H   7,C   1)                  1.0861         0.365357   
      9. B(H   8,C   3)                  1.0844         0.367637   
     10. B(H   9,C   5)                  1.0861         0.365362   
     11. A(C   1,C   0,C   5)          115.6245         0.443491   
     12. A(C   1,C   0,H   6)          122.1874         0.358597   
     13. A(C   5,C   0,H   6)          122.1881         0.358599   
     14. A(N   2,C   1,H   7)          115.2954         0.355121   
     15. A(C   0,C   1,N   2)          123.5475         0.440522   
     16. A(C   0,C   1,H   7)          121.1571         0.357367   
     17. A(C   1,N   2,C   3)          115.6099         0.438656   
     18. A(N   4,C   3,H   8)          116.9698         0.356320   
     19. A(N   2,C   3,N   4)          126.0603         0.439737   
     20. A(N   2,C   3,H   8)          116.9699         0.356318   
     21. A(C   3,N   4,C   5)          115.6104         0.438659   
     22. A(N   4,C   5,H   9)          115.2956         0.355122   
     23. A(C   0,C   5,H   9)          121.1569         0.357369   
     24. A(C   0,C   5,N   4)          123.5474         0.440524   
     25. D(H   7,C   1,C   0,C   5)    179.9995         0.030201   
     26. D(H   7,C   1,C   0,H   6)      0.0006         0.030201   
     27. D(N   2,C   1,C   0,C   5)     -0.0008         0.030201   
     28. D(N   2,C   1,C   0,H   6)   -179.9996         0.030201   
     29. D(C   3,N   2,C   1,H   7)   -180.0000         0.032022   
     30. D(C   3,N   2,C   1,C   0)      0.0002         0.032022   
     31. D(N   4,C   3,N   2,C   1)      0.0000         0.032982   
     32. D(H   8,C   3,N   2,C   1)    179.9999         0.032982   
     33. D(C   5,N   4,C   3,H   8)   -179.9996         0.032984   
     34. D(C   5,N   4,C   3,N   2)      0.0003         0.032984   
     35. D(H   9,C   5,C   0,H   6)     -0.0013         0.030202   
     36. D(H   9,C   5,C   0,C   1)    179.9999         0.030202   
     37. D(N   4,C   5,C   0,H   6)    180.0000         0.030202   
     38. D(C   0,C   5,N   4,C   3)     -0.0009         0.032022   
     39. D(N   4,C   5,C   0,C   1)      0.0011         0.030202   
     40. D(H   9,C   5,N   4,C   3)   -179.9997         0.032022   
    -----------------------------------------------------------------

Number of atoms                         .... 10
Number of degrees of freedom            .... 40

         *************************************************************
         *                GEOMETRY OPTIMIZATION CYCLE   1            *
         *************************************************************
---------------------------------
CARTESIAN COORDINATES (ANGSTROEM)
---------------------------------
  C     -0.759780    1.166990    0.005610
  C      0.615930    1.188740    0.012050
  N      1.377440    0.078790    0.015090
  C      0.707550   -1.084470    0.011410
  N     -0.627130   -1.227660    0.005100
  C     -1.335120   -0.082830    0.002320
  H     -1.349760    2.072260    0.003270
  H      1.163070    2.126900    0.015050
  H      1.299610   -1.992930    0.013750
  H     -2.414310   -0.204610   -0.002780

----------------------------
CARTESIAN COORDINATES (A.U.)
----------------------------
  NO LB      ZA    FRAG     MASS         X           Y           Z
   0 C     6.0000    0    12.011   -1.435776    2.205292    0.010601
   1 C     6.0000    0    12.011    1.163939    2.246393    0.022771
   2 N     7.0000    0    14.007    2.602984    0.148892    0.028516
   3 C     6.0000    0    12.011    1.337076   -2.049351    0.021562
   4 N     7.0000    0    14.007   -1.185104   -2.319941    0.009638
   5 C     6.0000    0    12.011   -2.523011   -0.156526    0.004384
   6 H     1.0000    0     1.008   -2.550677    3.916004    0.006179
   7 H     1.0000    0     1.008    2.197884    4.019259    0.028440
   8 H     1.0000    0     1.008    2.455907   -3.766092    0.025984
   9 H     1.0000    0     1.008   -4.562385   -0.386657   -0.005253

--------------------------------
INTERNAL COORDINATES (ANGSTROEM)
--------------------------------
 C      0   0   0     0.000000000000     0.00000000     0.00000000
 C      1   0   0     1.375896994764     0.00000000     0.00000000
 N      2   1   0     1.346066760677   123.54752326     0.00000000
 C      3   2   1     1.342363580443   115.60987447     0.00000000
 N      4   3   2     1.342353863406   126.06027977     0.00000000
 C      5   4   3     1.346065859236   115.61037690     0.00000000
 H      1   2   3     1.080553399375   122.18741252   180.00037371
 H      2   1   3     1.086054954963   121.15709470   180.00024365
 H      4   3   2     1.084361605185   116.96994177   179.99987198
 H      6   5   4     1.086051303807   115.29564371   180.00028598

---------------------------
INTERNAL COORDINATES (A.U.)
---------------------------
 C      0   0   0     0.000000000000     0.00000000     0.00000000
 C      1   0   0     2.600068508589     0.00000000     0.00000000
 N      2   1   0     2.543697535654   123.54752326     0.00000000
 C      3   2   1     2.536699539187   115.60987447     0.00000000
 N      4   3   2     2.536681176648   126.06027977     0.00000000
 C      5   4   3     2.543695832177   115.61037690     0.00000000
 H      1   2   3     2.041949997896   122.18741252   180.00037371
 H      2   1   3     2.052346431269   121.15709470   180.00024365
 H      4   3   2     2.049146463939   116.96994177   179.99987198
 H      6   5   4     2.052339531583   115.29564371   180.00028598

---------------------
BASIS SET INFORMATION
---------------------
There are 3 groups of distinct atoms

 Group   1 Type C   : 7s4p1d contracted to 3s2p1d pattern {511/31/1}
 Group   2 Type N   : 7s4p1d contracted to 3s2p1d pattern {511/31/1}
 Group   3 Type H   : 4s1p contracted to 2s1p pattern {31/1}

Atom   0C    basis set group =>   1
Atom   1C    basis set group =>   1
Atom   2N    basis set group =>   2
Atom   3C    basis set group =>   1
Atom   4N    basis set group =>   2
Atom   5C    basis set group =>   1
Atom   6H    basis set group =>   3
Atom   7H    basis set group =>   3
Atom   8H    basis set group =>   3
Atom   9H    basis set group =>   3
---------------------------------
AUXILIARY/J BASIS SET INFORMATION
---------------------------------
There are 3 groups of distinct atoms

 Group   1 Type C   : 12s5p4d2f1g contracted to 6s4p3d1f1g pattern {711111/2111/211/2/1}
 Group   2 Type N   : 12s5p4d2f1g contracted to 6s4p3d1f1g pattern {711111/2111/211/2/1}
 Group   3 Type H   : 5s2p1d contracted to 3s1p1d pattern {311/2/1}

Atom   0C    basis set group =>   1
Atom   1C    basis set group =>   1
Atom   2N    basis set group =>   2
Atom   3C    basis set group =>   1
Atom   4N    basis set group =>   2
Atom   5C    basis set group =>   1
Atom   6H    basis set group =>   3
Atom   7H    basis set group =>   3
Atom   8H    basis set group =>   3
Atom   9H    basis set group =>   3
------------------------------------------------------------------------------
                           ORCA GTO INTEGRAL CALCULATION
                           -- RI-GTO INTEGRALS CHOSEN --
------------------------------------------------------------------------------
------------------------------------------------------------------------------
                   ___                                                        
                  /   \      - P O W E R E D   B Y -                         
                 /     \                                                     
                 |  |  |   _    _      __       _____    __    __             
                 |  |  |  | |  | |    /  \     |  _  \  |  |  /  |          
                  \  \/   | |  | |   /    \    | | | |  |  | /  /          
                 / \  \   | |__| |  /  /\  \   | |_| |  |  |/  /          
                |  |  |   |  __  | /  /__\  \  |    /   |      \           
                |  |  |   | |  | | |   __   |  |    \   |  |\   \          
                \     /   | |  | | |  |  |  |  | |\  \  |  | \   \       
                 \___/    |_|  |_| |__|  |__|  |_| \__\ |__|  \__/        
                                                                              
                      - O R C A' S   B I G   F R I E N D -                    
                                      &                                       
                       - I N T E G R A L  F E E D E R -                       
                                                                              
 v1 FN, 2020, v2 2021                                                         
------------------------------------------------------------------------------


Reading SHARK input file Pyrimidine_DFT.SHARKINP.tmp ... SHARK General Contraction Test:  Segmented basis detected
   -> Pre-screening matrix *NOT* found on disk - recalculating with NShells=48
   -> Leaving CheckPreScreeningMatrix
ok
----------------------
SHARK INTEGRAL PACKAGE
----------------------

Number of atoms                             ...     10
Number of basis functions                   ...    104
Number of shells                            ...     48
Maximum angular momentum                    ...      2
Integral batch strategy                     ... SHARK/LIBINT Hybrid
RI-J (if used) integral strategy            ... SPLIT-RIJ (Revised 2003 algorithm where possible)
Printlevel                                  ...      2
Contraction scheme used                     ... SEGMENTED contraction
Coulomb Range Separation                    ... NOT USED
Exchange Range Separation                   ... NOT USED
Finite Nucleus Model                        ... NOT USED
Auxiliary Coulomb fitting basis             ... AVAILABLE
   # of basis functions in Aux-J            ...    338
   # of shells in Aux-J                     ...    110
   Maximum angular momentum in Aux-J        ...      4
Auxiliary J/K fitting basis                 ... NOT available
Auxiliary Correlation fitting basis         ... NOT available
Auxiliary 'external' fitting basis          ... NOT available
Integral threshold                          ...     2.500000e-11
Primitive cut-off                           ...     2.500000e-12
Primitive pair pre-selection threshold      ...     2.500000e-12

Calculating pre-screening integrals         ... done (  0.0 sec) Dimension = 48
Organizing shell pair data                  ... done (  0.1 sec)
Shell pair information
Total number of shell pairs                 ...      1176
Shell pairs after pre-screening             ...      1160
Total number of primitive shell pairs       ...      4368
Primitive shell pairs kept                  ...      3403
          la=0 lb=0:    342 shell pairs
          la=1 lb=0:    410 shell pairs
          la=1 lb=1:    135 shell pairs
          la=2 lb=0:    156 shell pairs
          la=2 lb=1:     96 shell pairs
          la=2 lb=2:     21 shell pairs

Calculating one electron integrals          ... done (  0.0 sec)
Calculating RI/J V-Matrix + Cholesky decomp.... done (  0.1 sec)
Calculating Nuclear repulsion               ... done (  0.0 sec) ENN=    208.908800104631 Eh

SHARK setup successfully completed in   0.4 seconds

Maximum memory used throughout the entire GTOINT-calculation: 12.7 MB
-------------------------------------------------------------------------------
                                 ORCA SCF
-------------------------------------------------------------------------------

------------
SCF SETTINGS
------------
Hamiltonian:
 Density Functional     Method          .... DFT(GTOs)
 Exchange Functional    Exchange        .... B88
   X-Alpha parameter    XAlpha          ....  0.666667
   Becke's b parameter  XBeta           ....  0.004200
 Correlation Functional Correlation     .... LYP
 LDA part of GGA corr.  LDAOpt          .... VWN-5
 Gradients option       PostSCFGGA      .... off
 Hybrid DFT is turned on
   Fraction HF Exchange ScalHFX         ....  0.200000
   Scaling of DF-GGA-X  ScalDFX         ....  0.720000
   Scaling of DF-GGA-C  ScalDFC         ....  0.810000
   Scaling of DF-LDA-C  ScalLDAC        ....  1.000000
   Perturbative correction              ....  0.000000
   Density functional embedding theory  .... OFF
   NL short-range parameter             ....  4.800000
 RI-approximation to the Coulomb term is turned on
   Number of AuxJ basis functions       .... 338
   RIJ-COSX (HFX calculated with COS-X)).... on


General Settings:
 Integral files         IntName         .... Pyrimidine_DFT
 Hartree-Fock type      HFTyp           .... RHF
 Total Charge           Charge          ....    0
 Multiplicity           Mult            ....    1
 Number of Electrons    NEL             ....   42
 Basis Dimension        Dim             ....  104
 Nuclear Repulsion      ENuc            ....    208.9088001046 Eh

Convergence Acceleration:
 DIIS                   CNVDIIS         .... on
   Start iteration      DIISMaxIt       ....    12
   Startup error        DIISStart       ....  0.200000
   # of expansion vecs  DIISMaxEq       ....     5
   Bias factor          DIISBfac        ....   1.050
   Max. coefficient     DIISMaxC        ....  10.000
 Trust-Rad. Augm. Hess. CNVTRAH         .... auto
   Auto Start mean grad. ratio tolernc. ....  1.125000
   Auto Start start iteration           ....    20
   Auto Start num. interpolation iter.  ....    10
   Max. Number of Micro iterations      ....    16
   Max. Number of Macro iterations      .... Maxiter - #DIIS iter
   Number of Davidson start vectors     ....     2
   Converg. threshold I  (grad. norm)   ....   1.000e-05
   Converg. threshold II (energy diff.) ....   1.000e-08
   Grad. Scal. Fac. for Micro threshold ....   0.100
   Minimum threshold for Micro iter.    ....   0.010
   NR start threshold (gradient norm)   ....   0.001
   Initial trust radius                 ....   0.400
   Minimum AH scaling param. (alpha)    ....   1.000
   Maximum AH scaling param. (alpha)    .... 1000.000
   Orbital update algorithm             .... Taylor
   White noise on init. David. guess    .... on
   Maximum white noise                  ....   0.010
   Quad. conv. algorithm                .... NR
 SOSCF                  CNVSOSCF        .... on
   Start iteration      SOSCFMaxIt      ....   150
   Startup grad/error   SOSCFStart      ....  0.003300
 Level Shifting         CNVShift        .... on
   Level shift para.    LevelShift      ....    0.2500
   Turn off err/grad.   ShiftErr        ....    0.0010
 Zerner damping         CNVZerner       .... off
 Static damping         CNVDamp         .... on
   Fraction old density DampFac         ....    0.7000
   Max. Damping (<1)    DampMax         ....    0.9800
   Min. Damping (>=0)   DampMin         ....    0.0000
   Turn off err/grad.   DampErr         ....    0.1000
 Fernandez-Rico         CNVRico         .... off

SCF Procedure:
 Maximum # iterations   MaxIter         ....   125
 SCF integral mode      SCFMode         .... Direct
   Integral package                     .... SHARK and LIBINT hybrid scheme
 Reset frequency        DirectResetFreq ....    20
 Integral Threshold     Thresh          ....  2.500e-11 Eh
 Primitive CutOff       TCut            ....  2.500e-12 Eh

Convergence Tolerance:
 Convergence Check Mode ConvCheckMode   .... Total+1el-Energy
 Convergence forced     ConvForced      .... 0
 Energy Change          TolE            ....  1.000e-08 Eh
 1-El. energy change                    ....  1.000e-05 Eh
 Orbital Gradient       TolG            ....  1.000e-05
 Orbital Rotation angle TolX            ....  1.000e-05
 DIIS Error             TolErr          ....  5.000e-07


Diagonalization of the overlap matrix:
Smallest eigenvalue                        ... 1.323e-03
Time for diagonalization                   ...    0.002 sec
Threshold for overlap eigenvalues          ... 1.000e-08
Number of eigenvalues below threshold      ... 0
Time for construction of square roots      ...    0.031 sec
Total time needed                          ...    0.033 sec

SHARK General Contraction Test:  Segmented basis detected
   -> Pre-screening matrix found on disk - Trying to read with NShells=48
   -> Passing Pre-screening matrix on to SHARK ...ok
   -> Leaving CheckPreScreeningMatrix
----------------------
SHARK INTEGRAL PACKAGE
----------------------

Number of atoms                             ...     10
Number of basis functions                   ...    104
Number of shells                            ...     48
Maximum angular momentum                    ...      2
Integral batch strategy                     ... SHARK/LIBINT Hybrid
RI-J (if used) integral strategy            ... SPLIT-RIJ (Revised 2003 algorithm where possible)
Printlevel                                  ...      2
Contraction scheme used                     ... SEGMENTED contraction
Coulomb Range Separation                    ... NOT USED
Exchange Range Separation                   ... NOT USED
Finite Nucleus Model                        ... NOT USED
Auxiliary Coulomb fitting basis             ... AVAILABLE
   # of basis functions in Aux-J            ...    338
   # of shells in Aux-J                     ...    110
   Maximum angular momentum in Aux-J        ...      4
Auxiliary J/K fitting basis                 ... NOT available
Auxiliary Correlation fitting basis         ... NOT available
Auxiliary 'external' fitting basis          ... NOT available
Integral threshold                          ...     2.500000e-11
Primitive cut-off                           ...     2.500000e-12
Primitive pair pre-selection threshold      ...     2.500000e-12

Time for model grid setup =    0.206 sec

------------------------------
INITIAL GUESS: MODEL POTENTIAL
------------------------------
Loading Hartree-Fock densities                     ... done
Calculating cut-offs                               ... done
Initializing the effective Hamiltonian             ... done
Setting up the integral package (SHARK)            ... done
Starting the Coulomb interaction                   ...     -> Generating integrals - 
    -> L=0 0 :     0.081 sec done=     29276 skipped=        70 prim-skipped=         0
    -> L=1 0 :     0.015 sec done=     34846 skipped=       236 prim-skipped=         0
    -> L=1 1 :     0.006 sec done=     11540 skipped=        42 prim-skipped=         0
    -> L=2 0 :     0.006 sec done=     13404 skipped=        12 prim-skipped=         0
    -> L=2 1 :     0.006 sec done=      8244 skipped=        12 prim-skipped=         0
    -> L=2 2 :     0.002 sec done=      1806 skipped=         0 prim-skipped=         0
done (   0.1 sec)
Reading the grid                                   ... done
Mapping shells                                     ... done
Starting the XC term evaluation                    ... done (   0.3 sec)
  promolecular density results
     # of electrons  =     41.998019622
     EX              =    -34.868963196
     EC              =     -1.422087782
     EX+EC           =    -36.291050978
Transforming the Hamiltonian                       ... done (   0.0 sec)
Diagonalizing the Hamiltonian                      ... done (   0.0 sec)
Back transforming the eigenvectors                 ... done (   0.0 sec)
Now organizing SCF variables                       ... done
                      ------------------
                      INITIAL GUESS DONE (   0.7 sec)
                      ------------------
-------------------
DFT GRID GENERATION
-------------------

General Integration Accuracy     IntAcc      ... 4.388
Radial Grid Type                 RadialGrid  ... OptM3 with GC (2021)
Angular Grid (max. ang.)         AngularGrid ... 4 (Lebedev-302)
Angular grid pruning method      GridPruning ... 4 (adaptive)
Weight generation scheme         WeightScheme... Becke
Basis function cutoff            BFCut       ... 1.0000e-11
Integration weight cutoff        WCut        ... 1.0000e-14
Angular grids for H and He will be reduced by one unit
Partially contracted basis set               ... off
Rotationally invariant grid construction     ... off

Total number of grid points                  ...    49218
Total number of batches                      ...      774
Average number of points per batch           ...       63
Average number of grid points per atom       ...     4922
Time for grid setup =    1.011 sec

--------------------
COSX GRID GENERATION
--------------------

GRIDX 1
-------
General Integration Accuracy     IntAcc      ... 3.816
Radial Grid Type                 RadialGrid  ... OptM3 with GC (2021)
Angular Grid (max. ang.)         AngularGrid ... 1 (Lebedev-50)
Angular grid pruning method      GridPruning ... 4 (adaptive)
Weight generation scheme         WeightScheme... Becke
Basis function cutoff            BFCut       ... 1.0000e-11
Integration weight cutoff        WCut        ... 1.0000e-14
Angular grids for H and He will be reduced by one unit
Partially contracted basis set               ... on
Rotationally invariant grid construction     ... off

Total number of grid points                  ...     6295
Total number of batches                      ...      102
Average number of points per batch           ...       61
Average number of grid points per atom       ...      630
UseSFitting                                  ... on

GRIDX 2
-------
General Integration Accuracy     IntAcc      ... 4.020
Radial Grid Type                 RadialGrid  ... OptM3 with GC (2021)
Angular Grid (max. ang.)         AngularGrid ... 2 (Lebedev-110)
Angular grid pruning method      GridPruning ... 4 (adaptive)
Weight generation scheme         WeightScheme... Becke
Basis function cutoff            BFCut       ... 1.0000e-11
Integration weight cutoff        WCut        ... 1.0000e-14
Angular grids for H and He will be reduced by one unit
Partially contracted basis set               ... on
Rotationally invariant grid construction     ... off

Total number of grid points                  ...    14023
Total number of batches                      ...      223
Average number of points per batch           ...       62
Average number of grid points per atom       ...     1402
UseSFitting                                  ... on

GRIDX 3
-------
General Integration Accuracy     IntAcc      ... 4.338
Radial Grid Type                 RadialGrid  ... OptM3 with GC (2021)
Angular Grid (max. ang.)         AngularGrid ... 3 (Lebedev-194)
Angular grid pruning method      GridPruning ... 4 (adaptive)
Weight generation scheme         WeightScheme... Becke
Basis function cutoff            BFCut       ... 1.0000e-11
Integration weight cutoff        WCut        ... 1.0000e-14
Angular grids for H and He will be reduced by one unit
Partially contracted basis set               ... on
Rotationally invariant grid construction     ... off

Total number of grid points                  ...    30982
Total number of batches                      ...      490
Average number of points per batch           ...       63
Average number of grid points per atom       ...     3098
UseSFitting                                  ... on

Time for X-Grid setup             =    1.303 sec


--------------------
CPCM SOLVATION MODEL
--------------------
CPCM parameters:
  Epsilon                                         ...      69.0000
  Refrac                                          ...       1.3400
  Rsolv                                           ...       1.3000
  Surface type                                    ... GAUSSIAN VDW
  Epsilon function type                           ...         CPCM
Radii:
 Radius for C  used is    3.8550 Bohr (=   2.0400 Ang.)
 Radius for N  used is    3.5149 Bohr (=   1.8600 Ang.)
 Radius for H  used is    2.4944 Bohr (=   1.3200 Ang.)
Calculating surface                               ...        done! (  0.0s)
GEPOL surface points                              ...          605
GEPOL Volume                                      ...     693.2365
GEPOL Surface-area                                ...     411.8050
Calculating surface distance matrix               ...        done! (  0.0s)
Performing Cholesky decomposition & store         ...        done! (  0.0s)
Overall time for CPCM initialization              ...                 0.0s
--------------
SCF ITERATIONS
--------------
               ***  Starting incremental Fock matrix formation  ***
==>> SHARK/AuxDens: NDens=1 Thresh =     2.500000e-11 TCut=    2.500000e-12 Lmax=2 LmaxAux=4
    -> Making Hermite density - ok     0.003 sec
    -> Making Aux-basis density - (lmax=2)
    -> L=0 0:    0.074 sec done=     37182 ( 98.8%) skipped=       438 
    -> L=1 0:    0.020 sec done=     43843 ( 97.2%) skipped=      1257 
    -> L=1 1:    0.010 sec done=     14520 ( 97.8%) skipped=       330 
    -> L=2 0:    0.069 sec done=     17037 ( 99.3%) skipped=       123 
    -> L=2 1:    0.009 sec done=     10161 ( 96.2%) skipped=       399 
    -> L=2 2:    0.002 sec done=      2310 (100.0%) skipped=         0 
    -> Aux basis density formed in    0.2 sec
    -> Solving linear equations - ok (   0.0 sec)
        Auxbasis Hermite Density:
        P|s>                     ...  0.000
        P|p>                     ...  0.000
        P|d>                     ...  0.000
        P|f>                     ...  0.000
        P|g>                     ...  0.000
        Building the Coulomb matrix: 
        J|ss>                          ... done (  0.0 sec) ndone=   205327 nskipped1=     1495 nskipped2=     9281
        J|ps>                          ... done (  0.1 sec) ndone=   217192 nskipped1=     1715 nskipped2=     4441
        J|pp>                          ... done (  0.0 sec) ndone=    64973 nskipped1=      158 nskipped2=     1715
        J|ds>                          ... done (  0.0 sec) ndone=    55775 nskipped1=       25 nskipped2=     2622
        J|dp>                          ... done (  0.0 sec) ndone=    29453 nskipped1=        5 nskipped2=      108
        J|dd>                          ... done (  0.0 sec) ndone=     3696 nskipped1=        0 nskipped2=        0
        Coulomb matrix built in   0.1 sec

        Total time for Split-RI-J                ...    0.305 sec
          (0) Prelude                            ...    0.000 sec
          (1) Hermite density                    ...    0.000 sec
          (2) Aux basis density                  ...    0.000 sec (inner=  0.0)
          (3) Linear equation solution           ...    0.000 sec
          (4) J-Matrix construction              ...    0.113 sec (inner=  0.1)
        ---------------------------------------------------------

                         ----------------------------
                         !        ITERATION     0   !
                         ----------------------------
   Total Energy        :    -263.860909860276 Eh
   Energy Change       :    -263.860909860276 Eh
   MAX-DP              :       0.076347775033
   RMS-DP              :       0.002669756678
   Actual Damping      :       0.7000
   Actual Level Shift  :       0.2500 Eh
   Int. Num. El.       :    42.00000866 (UP=   21.00000433 DN=   21.00000433)
   Exchange            :   -28.46148763
   Correlation         :    -1.69413063

==>> SHARK/AuxDens: NDens=1 Thresh =     2.500000e-11 TCut=    2.500000e-12 Lmax=2 LmaxAux=4
    -> Making Hermite density - ok     0.004 sec
    -> Making Aux-basis density - (lmax=2)
    -> L=0 0:    0.072 sec done=     36592 ( 97.3%) skipped=      1028 
    -> L=1 0:    0.017 sec done=     43434 ( 96.3%) skipped=      1666 
    -> L=1 1:    0.010 sec done=     14303 ( 96.3%) skipped=       547 
    -> L=2 0:    0.008 sec done=     16673 ( 97.2%) skipped=       487 
    -> L=2 1:    0.069 sec done=     10016 ( 94.8%) skipped=       544 
    -> L=2 2:    0.002 sec done=      2310 (100.0%) skipped=         0 
    -> Aux basis density formed in    0.2 sec
    -> Solving linear equations - ok (   0.0 sec)
        Auxbasis Hermite Density:
        P|s>                     ...  0.000
        P|p>                     ...  0.000
        P|d>                     ...  0.000
        P|f>                     ...  0.000
        P|g>                     ...  0.000
        Building the Coulomb matrix: 
        J|ss>                          ... done (  0.0 sec) ndone=   203754 nskipped1=     3000 nskipped2=     8106
        J|ps>                          ... done (  0.1 sec) ndone=   216836 nskipped1=     2184 nskipped2=     3640
        J|pp>                          ... done (  0.0 sec) ndone=    64681 nskipped1=      358 nskipped2=     1636
        J|ds>                          ... done (  0.0 sec) ndone=    55383 nskipped1=      498 nskipped2=     2321
        J|dp>                          ... done (  0.0 sec) ndone=    29329 nskipped1=       91 nskipped2=      100
        J|dd>                          ... done (  0.0 sec) ndone=     3696 nskipped1=        0 nskipped2=        0
        Coulomb matrix built in   0.1 sec

        Total time for Split-RI-J                ...    0.304 sec
          (0) Prelude                            ...    0.000 sec
          (1) Hermite density                    ...    0.000 sec
          (2) Aux basis density                  ...    0.000 sec (inner=  0.0)
          (3) Linear equation solution           ...    0.000 sec
          (4) J-Matrix construction              ...    0.119 sec (inner=  0.1)
        ---------------------------------------------------------

                         ----------------------------
                         !        ITERATION     1   !
                         ----------------------------
   Total Energy        :    -263.915025023206 Eh
   Energy Change       :      -0.054115162930 Eh
   MAX-DP              :       0.043384134090
   RMS-DP              :       0.001818778918
   Actual Damping      :       0.7000
   Actual Level Shift  :       0.2500 Eh
   Int. Num. El.       :    42.00000903 (UP=   21.00000451 DN=   21.00000451)
   Exchange            :   -28.28764661
   Correlation         :    -1.68805007

==>> SHARK/AuxDens: NDens=1 Thresh =     2.500000e-11 TCut=    2.500000e-12 Lmax=2 LmaxAux=4
    -> Making Hermite density - ok     0.004 sec
    -> Making Aux-basis density - (lmax=2)
    -> L=0 0:    0.010 sec done=     36434 ( 96.8%) skipped=      1186 
    -> L=1 0:    0.077 sec done=     43371 ( 96.2%) skipped=      1729 
    -> L=1 1:    0.010 sec done=     14302 ( 96.3%) skipped=       548 
    -> L=2 0:    0.008 sec done=     16646 ( 97.0%) skipped=       514 
    -> L=2 1:    0.008 sec done=      9954 ( 94.3%) skipped=       606 
    -> L=2 2:    0.002 sec done=      2310 (100.0%) skipped=         0 
    -> Aux basis density formed in    0.1 sec
    -> Solving linear equations - ok (   0.0 sec)
        Auxbasis Hermite Density:
        P|s>                     ...  0.000
        P|p>                     ...  0.000
        P|d>                     ...  0.000
        P|f>                     ...  0.000
        P|g>                     ...  0.000
        Building the Coulomb matrix: 
        J|ss>                          ... done (  0.1 sec) ndone=   203166 nskipped1=     3184 nskipped2=     7978
        J|ps>                          ... done (  0.0 sec) ndone=   216681 nskipped1=     2249 nskipped2=     3572
        J|pp>                          ... done (  0.0 sec) ndone=    64637 nskipped1=      369 nskipped2=     1630
        J|ds>                          ... done (  0.0 sec) ndone=    55341 nskipped1=      500 nskipped2=     2176
        J|dp>                          ... done (  0.1 sec) ndone=    29283 nskipped1=      105 nskipped2=       92
        J|dd>                          ... done (  0.0 sec) ndone=     3696 nskipped1=        0 nskipped2=        0
        Coulomb matrix built in   0.2 sec

        Total time for Split-RI-J                ...    0.288 sec
          (0) Prelude                            ...    0.000 sec
          (1) Hermite density                    ...    0.000 sec
          (2) Aux basis density                  ...    0.000 sec (inner=  0.0)
          (3) Linear equation solution           ...    0.000 sec
          (4) J-Matrix construction              ...    0.165 sec (inner=  0.2)
        ---------------------------------------------------------
                               ***Turning on DIIS***

                         ----------------------------
                         !        ITERATION     2   !
                         ----------------------------
   Total Energy        :    -263.937595267267 Eh
   Energy Change       :      -0.022570244061 Eh
   MAX-DP              :       0.066919898050
   RMS-DP              :       0.003152574299
   Actual Damping      :       0.0000
   Actual Level Shift  :       0.2500 Eh
   Int. Num. El.       :    42.00000955 (UP=   21.00000477 DN=   21.00000477)
   Exchange            :   -28.17024741
   Correlation         :    -1.68368243
   DIIS-Error          :       0.033623581132

==>> SHARK/AuxDens: NDens=1 Thresh =     2.500000e-11 TCut=    2.500000e-12 Lmax=2 LmaxAux=4
    -> Making Hermite density - ok     0.003 sec
    -> Making Aux-basis density - (lmax=2)
    -> L=0 0:    0.082 sec done=     36184 ( 96.2%) skipped=      1436 
    -> L=1 0:    0.099 sec done=     43382 ( 96.2%) skipped=      1718 
    -> L=1 1:    0.012 sec done=     14331 ( 96.5%) skipped=       519 
    -> L=2 0:    0.010 sec done=     16804 ( 97.9%) skipped=       356 
    -> L=2 1:    0.080 sec done=     10013 ( 94.8%) skipped=       547 
    -> L=2 2:    0.002 sec done=      2310 (100.0%) skipped=         0 
    -> Aux basis density formed in    0.3 sec
    -> Solving linear equations - ok (   0.0 sec)
        Auxbasis Hermite Density:
        P|s>                     ...  0.000
        P|p>                     ...  0.000
        P|d>                     ...  0.000
        P|f>                     ...  0.000
        P|g>                     ...  0.000
        Building the Coulomb matrix: 
        J|ss>                          ... done (  0.0 sec) ndone=   203876 nskipped1=     2771 nskipped2=     8120
        J|ps>                          ... done (  0.1 sec) ndone=   216897 nskipped1=     2091 nskipped2=     3630
        J|pp>                          ... done (  0.1 sec) ndone=    64694 nskipped1=      330 nskipped2=     1631
        J|ds>                          ... done (  0.0 sec) ndone=    55461 nskipped1=      375 nskipped2=     2291
        J|dp>                          ... done (  0.0 sec) ndone=    29339 nskipped1=       72 nskipped2=       96
        J|dd>                          ... done (  0.0 sec) ndone=     3696 nskipped1=        0 nskipped2=        0
        Coulomb matrix built in   0.2 sec

        Total time for Split-RI-J                ...    0.494 sec
          (0) Prelude                            ...    0.000 sec
          (1) Hermite density                    ...    0.000 sec
          (2) Aux basis density                  ...    0.000 sec (inner=  0.0)
          (3) Linear equation solution           ...    0.000 sec
          (4) J-Matrix construction              ...    0.203 sec (inner=  0.2)
        ---------------------------------------------------------

                         ----------------------------
                         !        ITERATION     3   !
                         ----------------------------
   Total Energy        :    -263.972046892029 Eh
   Energy Change       :      -0.034451624763 Eh
   MAX-DP              :       0.032777067157
   RMS-DP              :       0.001219882926
   Actual Damping      :       0.0000
   Actual Level Shift  :       0.2500 Eh
   Int. Num. El.       :    42.00001090 (UP=   21.00000545 DN=   21.00000545)
   Exchange            :   -27.98432122
   Correlation         :    -1.67627570
   DIIS-Error          :       0.043063656457
   DIIS coefficients:
      0.53070   0.46930

==>> SHARK/AuxDens: NDens=1 Thresh =     2.500000e-11 TCut=    2.500000e-12 Lmax=2 LmaxAux=4
    -> Making Hermite density - ok     0.003 sec
    -> Making Aux-basis density - (lmax=2)
    -> L=0 0:    0.012 sec done=     36636 ( 97.4%) skipped=       984 
    -> L=1 0:    0.083 sec done=     43218 ( 95.8%) skipped=      1882 
    -> L=1 1:    0.010 sec done=     14302 ( 96.3%) skipped=       548 
    -> L=2 0:    0.008 sec done=     16438 ( 95.8%) skipped=       722 
    -> L=2 1:    0.007 sec done=      9908 ( 93.8%) skipped=       652 
    -> L=2 2:    0.002 sec done=      2310 (100.0%) skipped=         0 
    -> Aux basis density formed in    0.1 sec
    -> Solving linear equations - ok (   0.0 sec)
        Auxbasis Hermite Density:
        P|s>                     ...  0.000
        P|p>                     ...  0.000
        P|d>                     ...  0.000
        P|f>                     ...  0.000
        P|g>                     ...  0.000
        Building the Coulomb matrix: 
        J|ss>                          ... done (  0.1 sec) ndone=   203027 nskipped1=     3581 nskipped2=     8028
        J|ps>                          ... done (  0.0 sec) ndone=   216636 nskipped1=     2358 nskipped2=     3617
        J|pp>                          ... done (  0.0 sec) ndone=    64610 nskipped1=      403 nskipped2=     1628
        J|ds>                          ... done (  0.1 sec) ndone=    55130 nskipped1=      780 nskipped2=     2142
        J|dp>                          ... done (  0.0 sec) ndone=    29246 nskipped1=      150 nskipped2=       94
        J|dd>                          ... done (  0.0 sec) ndone=     3696 nskipped1=        0 nskipped2=        0
        Coulomb matrix built in   0.2 sec

        Total time for Split-RI-J                ...    0.304 sec
          (0) Prelude                            ...    0.000 sec
          (1) Hermite density                    ...    0.000 sec
          (2) Aux basis density                  ...    0.000 sec (inner=  0.0)
          (3) Linear equation solution           ...    0.000 sec
          (4) J-Matrix construction              ...    0.178 sec (inner=  0.2)
        ---------------------------------------------------------

                         ----------------------------
                         !        ITERATION     4   !
                         ----------------------------
   Total Energy        :    -263.979739627120 Eh
   Energy Change       :      -0.007692735090 Eh
   MAX-DP              :       0.008795932699
   RMS-DP              :       0.000351534746
   Actual Damping      :       0.0000
   Actual Level Shift  :       0.2500 Eh
   Int. Num. El.       :    42.00001073 (UP=   21.00000536 DN=   21.00000536)
   Exchange            :   -28.05822114
   Correlation         :    -1.67912938
   DIIS-Error          :       0.006844808365
   DIIS coefficients:
      0.19180   0.06888   0.73932

==>> SHARK/AuxDens: NDens=1 Thresh =     2.500000e-11 TCut=    2.500000e-12 Lmax=2 LmaxAux=4
    -> Making Hermite density - ok     0.003 sec
    -> Making Aux-basis density - (lmax=2)
    -> L=0 0:    0.009 sec done=     35710 ( 94.9%) skipped=      1910 
    -> L=1 0:    0.087 sec done=     43117 ( 95.6%) skipped=      1983 
    -> L=1 1:    0.008 sec done=     14263 ( 96.0%) skipped=       587 
    -> L=2 0:    0.007 sec done=     16031 ( 93.4%) skipped=      1129 
    -> L=2 1:    0.006 sec done=      9866 ( 93.4%) skipped=       694 
    -> L=2 2:    0.072 sec done=      2310 (100.0%) skipped=         0 
    -> Aux basis density formed in    0.2 sec
    -> Solving linear equations - ok (   0.0 sec)
        Auxbasis Hermite Density:
        P|s>                     ...  0.000
        P|p>                     ...  0.000
        P|d>                     ...  0.000
        P|f>                     ...  0.000
        P|g>                     ...  0.000
        Building the Coulomb matrix: 
        J|ss>                          ... done (  0.0 sec) ndone=   201693 nskipped1=     4517 nskipped2=     7874
        J|ps>                          ... done (  0.0 sec) ndone=   216244 nskipped1=     2652 nskipped2=     3535
        J|pp>                          ... done (  0.0 sec) ndone=    64526 nskipped1=      465 nskipped2=     1628
        J|ds>                          ... done (  0.0 sec) ndone=    54768 nskipped1=     1157 nskipped2=     1902
        J|dp>                          ... done (  0.1 sec) ndone=    29149 nskipped1=      209 nskipped2=       90
        J|dd>                          ... done (  0.0 sec) ndone=     3696 nskipped1=        0 nskipped2=        0
        Coulomb matrix built in   0.1 sec

        Total time for Split-RI-J                ...    0.293 sec
          (0) Prelude                            ...    0.000 sec
          (1) Hermite density                    ...    0.000 sec
          (2) Aux basis density                  ...    0.000 sec (inner=  0.0)
          (3) Linear equation solution           ...    0.000 sec
          (4) J-Matrix construction              ...    0.098 sec (inner=  0.1)
        ---------------------------------------------------------
                      *** Initiating the SOSCF procedure ***
                           *** Shutting down DIIS ***
                      *** Re-Reading the Fockian *** 
                      *** Removing any level shift *** 

                         ----------------------------
                         !        ITERATION     5   !
                         ----------------------------
   Total Energy        :    -263.980077372872 Eh
   Energy Change       :      -0.000337745752 Eh
   MAX-DP              :       0.001517327110
   RMS-DP              :       0.000099898265
   Orbital gradient    :       0.000841122115
   Orbital Rotation    :       0.000841122115
   Actual Damping      :       0.0000
   Int. Num. El.       :    42.00001054 (UP=   21.00000527 DN=   21.00000527)
   Exchange            :   -28.07048250
   Correlation         :    -1.67976986

               *** Restarting incremental Fock matrix formation ***
==>> SHARK/AuxDens: NDens=1 Thresh =     2.500000e-11 TCut=    2.500000e-12 Lmax=2 LmaxAux=4
    -> Making Hermite density - ok     0.003 sec
    -> Making Aux-basis density - (lmax=2)
    -> L=0 0:    0.014 sec done=     37182 ( 98.8%) skipped=       438 
    -> L=1 0:    0.082 sec done=     43997 ( 97.6%) skipped=      1103 
    -> L=1 1:    0.012 sec done=     14520 ( 97.8%) skipped=       330 
    -> L=2 0:    0.008 sec done=     17044 ( 99.3%) skipped=       116 
    -> L=2 1:    0.068 sec done=     10162 ( 96.2%) skipped=       398 
    -> L=2 2:    0.002 sec done=      2310 (100.0%) skipped=         0 
    -> Aux basis density formed in    0.2 sec
    -> Solving linear equations - ok (   0.0 sec)
        Auxbasis Hermite Density:
        P|s>                     ...  0.000
        P|p>                     ...  0.000
        P|d>                     ...  0.000
        P|f>                     ...  0.000
        P|g>                     ...  0.000
        Building the Coulomb matrix: 
        J|ss>                          ... done (  0.0 sec) ndone=   205294 nskipped1=     1551 nskipped2=     9268
        J|ps>                          ... done (  0.0 sec) ndone=   217197 nskipped1=     1726 nskipped2=     4438
        J|pp>                          ... done (  0.1 sec) ndone=    64968 nskipped1=      165 nskipped2=     1715
        J|ds>                          ... done (  0.0 sec) ndone=    55756 nskipped1=       50 nskipped2=     2611
        J|dp>                          ... done (  0.0 sec) ndone=    29448 nskipped1=        9 nskipped2=      108
        J|dd>                          ... done (  0.0 sec) ndone=     3696 nskipped1=        0 nskipped2=        0
        Coulomb matrix built in   0.1 sec

        Total time for Split-RI-J                ...    0.299 sec
          (0) Prelude                            ...    0.000 sec
          (1) Hermite density                    ...    0.000 sec
          (2) Aux basis density                  ...    0.000 sec (inner=  0.0)
          (3) Linear equation solution           ...    0.000 sec
          (4) J-Matrix construction              ...    0.106 sec (inner=  0.1)
        ---------------------------------------------------------

                         ----------------------------
                         !        ITERATION     6   !
                         ----------------------------
   Total Energy        :    -263.980099419892 Eh
   Energy Change       :      -0.000022047021 Eh
   MAX-DP              :       0.001384240914
   RMS-DP              :       0.000063524609
   Orbital gradient    :       0.000426929696
   Orbital Rotation    :       0.001632703167
   Actual Damping      :       0.0000
   Int. Num. El.       :    42.00001047 (UP=   21.00000524 DN=   21.00000524)
   Exchange            :   -28.07359614
   Correlation         :    -1.67986506

==>> SHARK/AuxDens: NDens=1 Thresh =     2.500000e-11 TCut=    2.500000e-12 Lmax=2 LmaxAux=4
    -> Making Hermite density - ok     0.004 sec
    -> Making Aux-basis density - (lmax=2)
    -> L=0 0:    0.009 sec done=     35089 ( 93.3%) skipped=      2531 
    -> L=1 0:    0.078 sec done=     42334 ( 93.9%) skipped=      2766 
    -> L=1 1:    0.009 sec done=     13994 ( 94.2%) skipped=       856 
    -> L=2 0:    0.007 sec done=     15420 ( 89.9%) skipped=      1740 
    -> L=2 1:    0.007 sec done=      9280 ( 87.9%) skipped=      1280 
    -> L=2 2:    0.062 sec done=      2310 (100.0%) skipped=         0 
    -> Aux basis density formed in    0.2 sec
    -> Solving linear equations - ok (   0.0 sec)
        Auxbasis Hermite Density:
        P|s>                     ...  0.000
        P|p>                     ...  0.000
        P|d>                     ...  0.000
        P|f>                     ...  0.000
        P|g>                     ...  0.000
        Building the Coulomb matrix: 
        J|ss>                          ... done (  0.0 sec) ndone=   195496 nskipped1=     9334 nskipped2=     5745
        J|ps>                          ... done (  0.0 sec) ndone=   213644 nskipped1=     4450 nskipped2=     3121
        J|pp>                          ... done (  0.1 sec) ndone=    64162 nskipped1=      722 nskipped2=     1550
        J|ds>                          ... done (  0.0 sec) ndone=    51926 nskipped1=     3375 nskipped2=      967
        J|dp>                          ... done (  0.0 sec) ndone=    28739 nskipped1=      463 nskipped2=       72
        J|dd>                          ... done (  0.0 sec) ndone=     3696 nskipped1=        0 nskipped2=        0
        Coulomb matrix built in   0.1 sec

        Total time for Split-RI-J                ...    0.292 sec
          (0) Prelude                            ...    0.000 sec
          (1) Hermite density                    ...    0.000 sec
          (2) Aux basis density                  ...    0.000 sec (inner=  0.0)
          (3) Linear equation solution           ...    0.000 sec
          (4) J-Matrix construction              ...    0.114 sec (inner=  0.1)
        ---------------------------------------------------------

                         ----------------------------
                         !        ITERATION     7   !
                         ----------------------------
   Total Energy        :    -263.980100074782 Eh
   Energy Change       :      -0.000000654890 Eh
   MAX-DP              :       0.000817088200
   RMS-DP              :       0.000021830457
   Orbital gradient    :       0.000387992227
   Orbital Rotation    :       0.000538457039
   Actual Damping      :       0.0000
   Int. Num. El.       :    42.00001044 (UP=   21.00000522 DN=   21.00000522)
   Exchange            :   -28.07493478
   Correlation         :    -1.67992692

==>> SHARK/AuxDens: NDens=1 Thresh =     2.500000e-11 TCut=    2.500000e-12 Lmax=2 LmaxAux=4
    -> Making Hermite density - ok     0.002 sec
    -> Making Aux-basis density - (lmax=2)
    -> L=0 0:    0.080 sec done=     34514 ( 91.7%) skipped=      3106 
    -> L=1 0:    0.017 sec done=     41748 ( 92.6%) skipped=      3352 
    -> L=1 1:    0.010 sec done=     13871 ( 93.4%) skipped=       979 
    -> L=2 0:    0.008 sec done=     15340 ( 89.4%) skipped=      1820 
    -> L=2 1:    0.068 sec done=      9262 ( 87.7%) skipped=      1298 
    -> L=2 2:    0.002 sec done=      2310 (100.0%) skipped=         0 
    -> Aux basis density formed in    0.2 sec
    -> Solving linear equations - ok (   0.0 sec)
        Auxbasis Hermite Density:
        P|s>                     ...  0.000
        P|p>                     ...  0.000
        P|d>                     ...  0.000
        P|f>                     ...  0.000
        P|g>                     ...  0.000
        Building the Coulomb matrix: 
        J|ss>                          ... done (  0.0 sec) ndone=   193499 nskipped1=    11519 nskipped2=     5010
        J|ps>                          ... done (  0.1 sec) ndone=   212471 nskipped1=     5434 nskipped2=     3128
        J|pp>                          ... done (  0.0 sec) ndone=    63967 nskipped1=      926 nskipped2=     1543
        J|ds>                          ... done (  0.0 sec) ndone=    50601 nskipped1=     4442 nskipped2=      832
        J|dp>                          ... done (  0.0 sec) ndone=    28656 nskipped1=      544 nskipped2=       72
        J|dd>                          ... done (  0.0 sec) ndone=     3696 nskipped1=        0 nskipped2=        0
        Coulomb matrix built in   0.1 sec

        Total time for Split-RI-J                ...    0.306 sec
          (0) Prelude                            ...    0.000 sec
          (1) Hermite density                    ...    0.000 sec
          (2) Aux basis density                  ...    0.000 sec (inner=  0.0)
          (3) Linear equation solution           ...    0.000 sec
          (4) J-Matrix construction              ...    0.116 sec (inner=  0.1)
        ---------------------------------------------------------

                         ----------------------------
                         !        ITERATION     8   !
                         ----------------------------
   Total Energy        :    -263.980101953103 Eh
   Energy Change       :      -0.000001878321 Eh
   MAX-DP              :       0.000209126570
   RMS-DP              :       0.000010509387
   Orbital gradient    :       0.000059334939
   Orbital Rotation    :       0.000202140138
   Actual Damping      :       0.0000
   Int. Num. El.       :    42.00001043 (UP=   21.00000522 DN=   21.00000522)
   Exchange            :   -28.07455707
   Correlation         :    -1.67990984

==>> SHARK/AuxDens: NDens=1 Thresh =     2.500000e-11 TCut=    2.500000e-12 Lmax=2 LmaxAux=4
    -> Making Hermite density - ok     0.003 sec
    -> Making Aux-basis density - (lmax=2)
    -> L=0 0:    0.080 sec done=     34200 ( 90.9%) skipped=      3420 
    -> L=1 0:    0.018 sec done=     41465 ( 91.9%) skipped=      3635 
    -> L=1 1:    0.080 sec done=     13859 ( 93.3%) skipped=       991 
    -> L=2 0:    0.007 sec done=     14917 ( 86.9%) skipped=      2243 
    -> L=2 1:    0.008 sec done=      9240 ( 87.5%) skipped=      1320 
    -> L=2 2:    0.002 sec done=      2310 (100.0%) skipped=         0 
    -> Aux basis density formed in    0.2 sec
    -> Solving linear equations - ok (   0.0 sec)
        Auxbasis Hermite Density:
        P|s>                     ...  0.000
        P|p>                     ...  0.000
        P|d>                     ...  0.000
        P|f>                     ...  0.000
        P|g>                     ...  0.000
        Building the Coulomb matrix: 
        J|ss>                          ... done (  0.1 sec) ndone=   191016 nskipped1=    13564 nskipped2=     3554
        J|ps>                          ... done (  0.0 sec) ndone=   210761 nskipped1=     6421 nskipped2=     2956
        J|pp>                          ... done (  0.1 sec) ndone=    63623 nskipped1=     1174 nskipped2=     1397
        J|ds>                          ... done (  0.0 sec) ndone=    49152 nskipped1=     5433 nskipped2=      489
        J|dp>                          ... done (  0.0 sec) ndone=    28477 nskipped1=      651 nskipped2=       72
        J|dd>                          ... done (  0.0 sec) ndone=     3696 nskipped1=        0 nskipped2=        0
        Coulomb matrix built in   0.2 sec

        Total time for Split-RI-J                ...    0.392 sec
          (0) Prelude                            ...    0.000 sec
          (1) Hermite density                    ...    0.000 sec
          (2) Aux basis density                  ...    0.000 sec (inner=  0.0)
          (3) Linear equation solution           ...    0.000 sec
          (4) J-Matrix construction              ...    0.192 sec (inner=  0.2)
        ---------------------------------------------------------

                         ----------------------------
                         !        ITERATION     9   !
                         ----------------------------
   Total Energy        :    -263.980101962643 Eh
   Energy Change       :      -0.000000009540 Eh
   MAX-DP              :       0.000094871952
   RMS-DP              :       0.000003881559
   Orbital gradient    :       0.000063546099
   Orbital Rotation    :       0.000106678568
   Actual Damping      :       0.0000
   Int. Num. El.       :    42.00001043 (UP=   21.00000522 DN=   21.00000522)
   Exchange            :   -28.07414236
   Correlation         :    -1.67989186

==>> SHARK/AuxDens: NDens=1 Thresh =     2.500000e-11 TCut=    2.500000e-12 Lmax=2 LmaxAux=4
    -> Making Hermite density - ok     0.003 sec
    -> Making Aux-basis density - (lmax=2)
    -> L=0 0:    0.080 sec done=     33735 ( 89.7%) skipped=      3885 
    -> L=1 0:    0.017 sec done=     40367 ( 89.5%) skipped=      4733 
    -> L=1 1:    0.080 sec done=     13738 ( 92.5%) skipped=      1112 
    -> L=2 0:    0.007 sec done=     14507 ( 84.5%) skipped=      2653 
    -> L=2 1:    0.008 sec done=      9240 ( 87.5%) skipped=      1320 
    -> L=2 2:    0.002 sec done=      2307 ( 99.9%) skipped=         3 
    -> Aux basis density formed in    0.2 sec
    -> Solving linear equations - ok (   0.0 sec)
        Auxbasis Hermite Density:
        P|s>                     ...  0.000
        P|p>                     ...  0.000
        P|d>                     ...  0.000
        P|f>                     ...  0.000
        P|g>                     ...  0.000
        Building the Coulomb matrix: 
        J|ss>                          ... done (  0.1 sec) ndone=   189396 nskipped1=    14960 nskipped2=     3318
        J|ps>                          ... done (  0.0 sec) ndone=   208320 nskipped1=     8140 nskipped2=     2873
        J|pp>                          ... done (  0.0 sec) ndone=    63332 nskipped1=     1414 nskipped2=     1312
        J|ds>                          ... done (  0.1 sec) ndone=    47910 nskipped1=     6383 nskipped2=      414
        J|dp>                          ... done (  0.0 sec) ndone=    28324 nskipped1=      755 nskipped2=       72
        J|dd>                          ... done (  0.0 sec) ndone=     3696 nskipped1=        0 nskipped2=        0
        Coulomb matrix built in   0.2 sec

        Total time for Split-RI-J                ...    0.389 sec
          (0) Prelude                            ...    0.000 sec
          (1) Hermite density                    ...    0.000 sec
          (2) Aux basis density                  ...    0.000 sec (inner=  0.0)
          (3) Linear equation solution           ...    0.000 sec
          (4) J-Matrix construction              ...    0.190 sec (inner=  0.2)
        ---------------------------------------------------------

                         ----------------------------
                         !        ITERATION    10   !
                         ----------------------------
   Total Energy        :    -263.980102024076 Eh
   Energy Change       :      -0.000000061433 Eh
   MAX-DP              :       0.000041497297
   RMS-DP              :       0.000001749389
   Orbital gradient    :       0.000012199263
   Orbital Rotation    :       0.000023868077
   Actual Damping      :       0.0000
   Int. Num. El.       :    42.00001043 (UP=   21.00000522 DN=   21.00000522)
   Exchange            :   -28.07434536
   Correlation         :    -1.67990028

==>> SHARK/AuxDens: NDens=1 Thresh =     2.500000e-11 TCut=    2.500000e-12 Lmax=2 LmaxAux=4
    -> Making Hermite density - ok     0.003 sec
    -> Making Aux-basis density - (lmax=2)
    -> L=0 0:    0.080 sec done=     33606 ( 89.3%) skipped=      4014 
    -> L=1 0:    0.017 sec done=     39618 ( 87.8%) skipped=      5482 
    -> L=1 1:    0.080 sec done=     13216 ( 89.0%) skipped=      1634 
    -> L=2 0:    0.007 sec done=     14077 ( 82.0%) skipped=      3083 
    -> L=2 1:    0.008 sec done=      9240 ( 87.5%) skipped=      1320 
    -> L=2 2:    0.002 sec done=      2224 ( 96.3%) skipped=        86 
    -> Aux basis density formed in    0.2 sec
    -> Solving linear equations - ok (   0.1 sec)
        Auxbasis Hermite Density:
        P|s>                     ... -0.000
        P|p>                     ... -0.000
        P|d>                     ... -0.000
        P|f>                     ... -0.000
        P|g>                     ... -0.000
        Building the Coulomb matrix: 
        J|ss>                          ... done (  0.0 sec) ndone=   187205 nskipped1=    16577 nskipped2=     2988
        J|ps>                          ... done (  0.0 sec) ndone=   205363 nskipped1=     9944 nskipped2=     2680
        J|pp>                          ... done (  0.1 sec) ndone=    63045 nskipped1=     1628 nskipped2=     1184
        J|ds>                          ... done (  0.0 sec) ndone=    46422 nskipped1=     7350 nskipped2=      309
        J|dp>                          ... done (  0.0 sec) ndone=    28042 nskipped1=      926 nskipped2=       72
        J|dd>                          ... done (  0.0 sec) ndone=     3696 nskipped1=        0 nskipped2=        0
        Coulomb matrix built in   0.1 sec

        Total time for Split-RI-J                ...    0.394 sec
          (0) Prelude                            ...    0.000 sec
          (1) Hermite density                    ...    0.000 sec
          (2) Aux basis density                  ...    0.000 sec (inner=  0.0)
          (3) Linear equation solution           ...    0.000 sec
          (4) J-Matrix construction              ...    0.113 sec (inner=  0.1)
        ---------------------------------------------------------

                         ----------------------------
                         !        ITERATION    11   !
                         ----------------------------
   Total Energy        :    -263.980102023022 Eh
   Energy Change       :       0.000000001054 Eh
   MAX-DP              :       0.000024996672
   RMS-DP              :       0.000000900737
   Orbital gradient    :       0.000013376470
   Orbital Rotation    :       0.000013473502
   Actual Damping      :       0.0000
   Int. Num. El.       :    42.00001043 (UP=   21.00000522 DN=   21.00000522)
   Exchange            :   -28.07438461
   Correlation         :    -1.67990278

==>> SHARK/AuxDens: NDens=1 Thresh =     2.500000e-11 TCut=    2.500000e-12 Lmax=2 LmaxAux=4
    -> Making Hermite density - ok     0.002 sec
    -> Making Aux-basis density - (lmax=2)
    -> L=0 0:    0.010 sec done=     33297 ( 88.5%) skipped=      4323 
    -> L=1 0:    0.087 sec done=     39074 ( 86.6%) skipped=      6026 
    -> L=1 1:    0.009 sec done=     13161 ( 88.6%) skipped=      1689 
    -> L=2 0:    0.006 sec done=     14099 ( 82.2%) skipped=      3061 
    -> L=2 1:    0.078 sec done=      9240 ( 87.5%) skipped=      1320 
    -> L=2 2:    0.002 sec done=      2139 ( 92.6%) skipped=       171 
    -> Aux basis density formed in    0.2 sec
    -> Solving linear equations - ok (   0.0 sec)
        Auxbasis Hermite Density:
        P|s>                     ...  0.000
        P|p>                     ...  0.000
        P|d>                     ...  0.000
        P|f>                     ...  0.000
        P|g>                     ...  0.000
        Building the Coulomb matrix: 
        J|ss>                          ... done (  0.0 sec) ndone=   185018 nskipped1=    18190 nskipped2=     2736
        J|ps>                          ... done (  0.1 sec) ndone=   203091 nskipped1=    11641 nskipped2=     2534
        J|pp>                          ... done (  0.0 sec) ndone=    62867 nskipped1=     1868 nskipped2=     1116
        J|ds>                          ... done (  0.0 sec) ndone=    45287 nskipped1=     8157 nskipped2=      244
        J|dp>                          ... done (  0.0 sec) ndone=    27873 nskipped1=     1025 nskipped2=       72
        J|dd>                          ... done (  0.0 sec) ndone=     3694 nskipped1=        1 nskipped2=        0
        Coulomb matrix built in   0.1 sec

        Total time for Split-RI-J                ...    0.312 sec
          (0) Prelude                            ...    0.000 sec
          (1) Hermite density                    ...    0.000 sec
          (2) Aux basis density                  ...    0.000 sec (inner=  0.0)
          (3) Linear equation solution           ...    0.000 sec
          (4) J-Matrix construction              ...    0.114 sec (inner=  0.1)
        ---------------------------------------------------------
                  ***Gradient check signals convergence***
              ***Rediagonalizing the Fockian in SOSCF/NRSCF***

               *****************************************************
               *                     SUCCESS                       *
               *           SCF CONVERGED AFTER  12 CYCLES          *
               *****************************************************

Old exchange energy                            =     -7.061106974 Eh
New exchange energy                            =     -7.061100449 Eh
Exchange energy change after final integration =      0.000006525 Eh
Total energy after final integration           =   -263.980095501 Eh
Final COS-X integration done in                =    11.921 sec

----------------
TOTAL SCF ENERGY
----------------

Total Energy       :         -263.98009550 Eh           -7183.26359 eV

Components:
Nuclear Repulsion  :          208.90880010 Eh            5684.69746 eV
Electronic Energy  :         -472.88889561 Eh          -12867.96104 eV
One Electron Energy:         -769.41895083 Eh          -20936.95407 eV
Two Electron Energy:          296.53005523 Eh            8068.99302 eV
Max COSX asymmetry :            0.00000192 Eh               0.00005 eV
CPCM Dielectric    :           -0.00968099 Eh              -0.26343 eV

Virial components:
Potential Energy   :         -525.49727307 Eh          -14299.50777 eV
Kinetic Energy     :          261.51717757 Eh            7116.24418 eV
Virial Ratio       :            2.00941781


DFT components:
N(Alpha)           :       21.000005216721 electrons
N(Beta)            :       21.000005216721 electrons
N(Total)           :       42.000010433442 electrons
E(X)               :      -28.074359790250 Eh       
E(C)               :       -1.679901186773 Eh       
E(XC)              :      -29.754260977023 Eh       
DFET-embed. en.    :        0.000000000000 Eh       
CPCM Solvation Model Properties:
Surface-charge          :           -0.01387181
Charge-correction       :           -0.00012391 Eh              -0.00337 eV
Free-energy (cav+disp)  :  This term is not implemented in the current solvation scheme

---------------
SCF CONVERGENCE
---------------

  Last Energy change         ...   -3.0261e-09  Tolerance :   1.0000e-08
  Last MAX-Density change    ...    3.9968e-15  Tolerance :   1.0000e-07
  Last RMS-Density change    ...    6.0449e-17  Tolerance :   5.0000e-09
  Last Orbital Gradient      ...    1.7203e-06  Tolerance :   1.0000e-05
  Last Orbital Rotation      ...    4.1108e-06  Tolerance :   1.0000e-05

             **** THE GBW FILE WAS UPDATED (Pyrimidine_DFT.gbw) ****
             **** DENSITY Pyrimidine_DFT.scfp WAS UPDATED ****
             **** ENERGY FILE WAS UPDATED (Pyrimidine_DFT.en.tmp) ****
             **** THE GBW FILE WAS UPDATED (Pyrimidine_DFT.gbw) ****
             **** DENSITY Pyrimidine_DFT.scfp WAS UPDATED ****
----------------
ORBITAL ENERGIES
----------------

  NO   OCC          E(Eh)            E(eV) 
   0   2.0000     -14.335017      -390.0757 
   1   2.0000     -14.335000      -390.0752 
   2   2.0000     -10.256198      -279.0853 
   3   2.0000     -10.237682      -278.5815 
   4   2.0000     -10.237572      -278.5785 
   5   2.0000     -10.201531      -277.5978 
   6   2.0000      -0.980063       -26.6689 
   7   2.0000      -0.880198       -23.9514 
   8   2.0000      -0.791491       -21.5376 
   9   2.0000      -0.652857       -17.7651 
  10   2.0000      -0.652818       -17.7641 
  11   2.0000      -0.536449       -14.5975 
  12   2.0000      -0.517675       -14.0867 
  13   2.0000      -0.466553       -12.6955 
  14   2.0000      -0.430126       -11.7043 
  15   2.0000      -0.416089       -11.3224 
  16   2.0000      -0.409079       -11.1316 
  17   2.0000      -0.320752        -8.7281 
  18   2.0000      -0.307953        -8.3798 
  19   2.0000      -0.293820        -7.9952 
  20   2.0000      -0.259363        -7.0576 
  21   0.0000      -0.045702        -1.2436 
  22   0.0000      -0.032186        -0.8758 
  23   0.0000       0.083145         2.2625 
  24   0.0000       0.119367         3.2481 
  25   0.0000       0.123252         3.3539 
  26   0.0000       0.123679         3.3655 
  27   0.0000       0.149729         4.0743 
  28   0.0000       0.206458         5.6180 
  29   0.0000       0.221441         6.0257 
  30   0.0000       0.302552         8.2329 
  31   0.0000       0.311479         8.4758 
  32   0.0000       0.328820         8.9476 
  33   0.0000       0.370832        10.0908 
  34   0.0000       0.388243        10.5646 
  35   0.0000       0.424353        11.5472 
  36   0.0000       0.446074        12.1383 
  37   0.0000       0.479144        13.0382 
  38   0.0000       0.514946        14.0124 
  39   0.0000       0.517761        14.0890 
  40   0.0000       0.528927        14.3928 
  41   0.0000       0.549221        14.9451 
  42   0.0000       0.583552        15.8793 
  43   0.0000       0.598889        16.2966 
  44   0.0000       0.610103        16.6018 
  45   0.0000       0.639372        17.3982 
  46   0.0000       0.645653        17.5691 
  47   0.0000       0.679805        18.4984 
  48   0.0000       0.736654        20.0454 
  49   0.0000       0.748439        20.3661 
  50   0.0000       0.753743        20.5104 
  51   0.0000       0.813794        22.1445 
  52   0.0000       0.822238        22.3742 
  53   0.0000       0.879540        23.9335 
  54   0.0000       0.910238        24.7688 
  55   0.0000       0.910787        24.7838 
  56   0.0000       1.004456        27.3326 
  57   0.0000       1.092089        29.7172 
  58   0.0000       1.140252        31.0278 
  59   0.0000       1.173710        31.9383 
  60   0.0000       1.182050        32.1652 
  61   0.0000       1.247489        33.9459 
  62   0.0000       1.257394        34.2154 
  63   0.0000       1.306172        35.5428 
[...]
 7 H  px              0.2       0.0       5.4       0.0       2.3       0.0
 7 H  py              4.4       0.0       0.9       0.0       2.0       0.0
 8 H  s               0.0       0.0       1.0       0.0       2.5       0.0
 8 H  pz              0.0       0.0       0.0       1.6       0.0       0.0
 8 H  px              6.4       0.0       3.1       0.0       3.9       0.0
 8 H  py              2.7       0.0       7.2       0.0       9.3       0.0
 9 H  s               0.2       0.0       0.4       0.0       0.1       0.0
 9 H  pz              0.0       2.0       0.0       2.9       0.0       0.7
 9 H  px              4.4       0.0       3.2       0.0       0.4       0.0
 9 H  py              0.2       0.0       3.0       0.0       3.8       0.0

                     90        91        92        93        94        95   
                   2.54764   2.55397   2.61107   2.64769   2.69613   2.84034
                   0.00000   0.00000   0.00000   0.00000   0.00000   0.00000
                  --------  --------  --------  --------  --------  --------
 0 C  s               0.0       0.0       8.8       0.0       4.0       0.0
 0 C  pz              0.2       0.0       0.0       0.0       0.0       0.0
 0 C  px              0.0       0.2       0.1       0.0       1.5       0.0
 0 C  py              0.0       0.1       0.2       0.0       3.5       0.0
 0 C  dz2             0.0       0.0      22.2       0.0       2.1       0.0
 0 C  dxz             0.9       0.0       0.0       1.0       0.0       0.0
 0 C  dyz             2.2       0.0       0.0       2.4       0.0       0.0
 0 C  dx2y2           0.0       5.6       1.2       0.0       1.2       4.0
 0 C  dxy             0.0       1.1       6.4       0.0       6.1       0.8
 1 C  s               0.0       0.1       2.8       0.0       1.8       1.9
 1 C  pz              0.1       0.0       0.0       0.3       0.0       0.0
 1 C  px              0.0       1.0       1.4       0.0       0.5       1.8
 1 C  py              0.0       4.4       0.9       0.0       2.1       0.1
 1 C  dz2             0.0       0.0       7.2       0.0       0.8       3.4
 1 C  dxz             8.0       0.0       0.0       0.1       0.0       0.0
 1 C  dyz             0.8       0.0       0.0      11.6       0.0       0.0
 1 C  dx2y2           0.0       0.1       3.8       0.0       2.4       1.7
 1 C  dxy             0.0       1.2       0.5       0.0       1.8       0.3
 2 N  s               0.0       0.4       0.4       0.0       0.0       3.6
 2 N  pz              0.0       0.0       0.0       0.7       0.0       0.0
 2 N  px              0.0       0.9       0.2       0.0       0.0       1.2
 2 N  py              0.0       1.8       0.8       0.0       0.1       0.2
 2 N  dz2             0.0       6.7       3.2       0.0       0.0      21.4
 2 N  dxz             1.9       0.0       0.0      25.4       0.0       0.0
 2 N  dyz            32.1       0.0       0.0       3.4       0.0       0.0
 2 N  dx2y2           0.0       5.4       0.3       0.0       0.1       2.7
 2 N  dxy             0.0       2.3       0.5       0.0       0.1       0.7
 3 C  s               0.0       0.0       1.3       0.0       0.3       0.0
 3 C  pz              1.0       0.0       0.0       0.1       0.0       0.0
 3 C  px              0.0       0.8       0.0       0.0       0.4       3.3
 3 C  py              0.0       0.4       0.1       0.0       0.9       1.4
 3 C  dz2             0.0       0.0       4.6       0.0       0.5       0.0
 3 C  dxz             2.5       0.0       0.0       2.9       0.0       0.0
 3 C  dyz             5.9       0.0       0.0       6.8       0.0       0.0
 3 C  dx2y2           0.0      13.9       0.5       0.0       0.3       2.1
 3 C  dxy             0.0       2.7       2.5       0.0       1.7       0.4
 4 N  s               0.0       0.4       0.4       0.0       0.0       3.6
 4 N  pz              0.0       0.0       0.0       0.7       0.0       0.0
 4 N  px              0.0       1.0       0.8       0.0       0.1       0.6
 4 N  py              0.0       1.7       0.2       0.0       0.0       0.8
 4 N  dz2             0.0       6.7       3.2       0.0       0.0      21.4
 4 N  dxz            33.0       0.0       0.0       0.1       0.0       0.0
 4 N  dyz             1.0       0.0       0.0      28.7       0.0       0.0
 4 N  dx2y2           0.0       7.3       0.0       0.0       0.1       3.0
 4 N  dxy             0.0       0.5       0.8       0.0       0.0       0.4
 5 C  s               0.0       0.1       2.8       0.0       1.8       1.9
 5 C  pz              0.1       0.0       0.0       0.3       0.0       0.0
 5 C  px              0.0       5.4       0.2       0.0       2.5       0.6
 5 C  py              0.0       0.0       2.2       0.0       0.1       1.4
 5 C  dz2             0.0       0.0       7.2       0.0       0.8       3.4
 5 C  dxz             0.1       0.0       0.0       9.0       0.0       0.0
 5 C  dyz             8.7       0.0       0.0       2.7       0.0       0.0
 5 C  dx2y2           0.0       0.9       3.4       0.0       4.1       0.2
 5 C  dxy             0.0       0.3       0.9       0.0       0.1       1.7
 6 H  s               0.0       0.0       0.3       0.0       6.6       0.0
 6 H  pz              0.3       0.0       0.0       0.7       0.0       0.0
 6 H  px              0.0       0.5       0.7       0.0       6.1       0.5
 6 H  py              0.0       0.2       1.7       0.0      14.5       0.2
 7 H  s               0.0       1.9       0.3       0.0       3.0       1.2
 7 H  pz              0.3       0.0       0.0       0.9       0.0       0.0
 7 H  px              0.0       1.8       0.6       0.0       4.0       1.2
 7 H  py              0.0       6.4       1.5       0.0       5.9       2.2
 8 H  s               0.0       0.0       0.0       0.0       1.3       0.0
 8 H  pz              0.5       0.0       0.0       1.4       0.0       0.0
 8 H  px              0.0       4.0       0.0       0.0       1.2       0.0
 8 H  py              0.0       1.7       0.1       0.0       2.8       0.0
 9 H  s               0.0       1.9       0.3       0.0       3.0       1.2
 9 H  pz              0.3       0.0       0.0       0.9       0.0       0.0
 9 H  px              0.0       8.2       2.0       0.0       9.2       3.2
 9 H  py              0.0       0.0       0.0       0.0       0.7       0.2

                     96        97        98        99       100       101   
                   2.88783   2.92541   2.93928   3.05561   3.09788   3.18434
                   0.00000   0.00000   0.00000   0.00000   0.00000   0.00000
                  --------  --------  --------  --------  --------  --------
 0 C  s               0.0       0.0       0.2       0.7       0.0       1.4
 0 C  px              0.0       0.9       0.0       0.6       1.8       0.1
 0 C  py              0.0       0.4       0.1       1.4       0.8       0.2
 0 C  dz2             0.0       0.0       0.4       2.3       0.0       1.0
 0 C  dxz             3.3       0.0       0.0       0.0       0.0       0.0
 0 C  dyz             1.4       0.0       0.0       0.0       0.0       0.0
 0 C  dx2y2           0.0      20.5       0.2       0.9       4.1       1.7
 0 C  dxy             0.0       4.0       1.3       4.4       0.8       8.7
 1 C  s               0.0       4.2       1.8       2.5       0.1       0.0
 1 C  px              0.0       0.2       0.1       1.1       0.3       0.1
 1 C  py              0.0       0.2       0.1       0.5       1.0       1.0
 1 C  dz2             0.0       2.1       2.5       2.4       0.0       0.3
 1 C  dxz             5.6       0.0       0.0       0.0       0.0       0.0
 1 C  dyz             2.3       0.0       0.0       0.0       0.0       0.0
 1 C  dx2y2           0.0       0.3       0.0       2.3      15.2       1.7
 1 C  dxy             0.0      11.3       0.1       0.0       1.7       8.2
 2 N  s               0.0       0.6       1.7       0.4       0.9       0.1
 2 N  px              0.0       0.2       0.5       0.2       0.1       0.1
 2 N  py              0.0       0.5       0.0       1.0       0.1       2.0
 2 N  dz2             0.0       0.6      14.7       1.3       0.7       0.6
 2 N  dyz            30.0       0.0       0.0       0.0       0.0       0.0
 2 N  dx2y2           0.0       0.7       0.3       1.8      17.4       4.0
 2 N  dxy             0.0       4.5       0.4      20.9       0.1      10.1
 3 C  s               0.0       0.0      11.2       2.4       0.0       1.8
 3 C  px              0.0       0.5       0.4       0.0       0.8       0.7
 3 C  py              0.0       0.2       1.0       0.1       0.3       1.8
 3 C  dz2             0.0       0.0      11.1       0.2       0.0       0.6
 3 C  dxz            13.5       0.0       0.0       0.0       0.0       0.0
 3 C  dyz             5.7       0.0       0.0       0.0       0.0       0.0
 3 C  dx2y2           0.0       2.1       1.0       1.0       3.7       1.7
 3 C  dxy             0.0       0.4       5.4       4.9       0.7       8.9
 4 N  s               0.0       0.6       1.7       0.4       0.9       0.1
 4 N  px              0.0       0.3       0.1       0.8       0.2       1.5
 4 N  py              0.0       0.4       0.4       0.3       0.0       0.6
 4 N  dz2             0.0       0.6      14.7       1.3       0.7       0.6
 4 N  dxz            25.9       0.0       0.0       0.0       0.0       0.0
 4 N  dyz             4.0       0.0       0.0       0.0       0.0       0.0
 4 N  dx2y2           0.0       4.5       0.6       6.1       8.9      13.6
 4 N  dxy             0.0       0.6       0.0      16.7       8.5       0.5
 5 C  s               0.0       4.1       1.8       2.5       0.1       0.0
 5 C  px              0.0       0.1       0.1       0.1       1.2       1.0
 5 C  py              0.0       0.3       0.1       1.5       0.1       0.0
 5 C  dz2             0.0       2.1       2.5       2.4       0.0       0.3
 5 C  dxz             0.2       0.0       0.0       0.0       0.0       0.0
 5 C  dyz             7.8       0.0       0.0       0.0       0.0       0.0
 5 C  dx2y2           0.0       4.5       0.0       1.0      12.9       1.5
 5 C  dxy             0.0       7.0       0.1       1.2       4.0       8.4
 6 H  s               0.0       0.0       0.0       3.0       0.0       2.3
 6 H  px              0.0       3.4       0.0       1.5       0.1       0.8
 6 H  py              0.0       1.4       0.0       3.5       0.1       1.9
 7 H  s               0.0       2.2       0.4       0.6       1.4       1.0
 7 H  px              0.0       0.1       0.4       0.4       3.3       0.1
 7 H  py              0.0       5.4       0.7       0.6       0.3       2.4
 8 H  s               0.0       0.0       6.3       0.6       0.0       1.3
 8 H  px              0.0       0.2       4.1       0.2       1.0       0.5
 8 H  py              0.0       0.1       9.6       0.5       0.4       1.3
 9 H  s               0.0       2.2       0.4       0.6       1.4       1.0
 9 H  px              0.0       5.0       1.0       0.9       1.6       1.6
 9 H  py              0.0       0.5       0.1       0.1       2.0       0.9

                    102       103   
                   3.35162   3.63418
                   0.00000   0.00000
                  --------  --------
 0 C  px              0.2       0.2
 0 C  py              0.1       0.4
 0 C  dx2y2           4.0       2.1
 0 C  dxy             0.8      10.9
 1 C  s               0.3       0.0
 1 C  px              0.9       0.0
 1 C  py              1.1       0.3
 1 C  dx2y2           2.6       4.2
 1 C  dxy             3.9       9.3
 2 N  s               0.0       0.8
 2 N  px              0.0       0.2
 2 N  py              2.3       0.0
 2 N  dz2             0.0       0.5
 2 N  dx2y2           0.4      15.7
 2 N  dxy            25.2       0.0
 3 C  s               0.0       0.1
 3 C  px              1.9       0.1
 3 C  py              0.8       0.2
 3 C  dz2             0.0       0.3
 3 C  dx2y2          12.4       2.3
 3 C  dxy             2.4      11.7
 4 N  s               0.0       0.8
 4 N  px              2.0       0.1
 4 N  py              0.3       0.2
 4 N  dz2             0.0       0.5
 4 N  dx2y2          10.9       7.0
 4 N  dxy            14.6       8.6
 5 C  s               0.3       0.0
 5 C  px              0.4       0.3
 5 C  py              1.7       0.0
 5 C  dx2y2           0.1      13.2
 5 C  dxy             6.4       0.3
 6 H  s               0.0       1.6
 6 H  px              0.4       0.4
 6 H  py              0.2       0.9
 7 H  s               0.1       1.3
 7 H  px              0.2       0.3
 7 H  py              0.4       0.8
 8 H  s               0.0       1.0
 8 H  px              1.1       0.3
 8 H  py              0.5       0.6
 9 H  s               0.1       1.3
 9 H  px              0.2       1.1
 9 H  py              0.4       0.0


                      *****************************
                      * MAYER POPULATION ANALYSIS *
                      *****************************

  NA   - Mulliken gross atomic population
  ZA   - Total nuclear charge
  QA   - Mulliken gross atomic charge
  VA   - Mayer's total valence
  BVA  - Mayer's bonded valence
  FA   - Mayer's free valence

  ATOM       NA         ZA         QA         VA         BVA        FA
  0 C      6.0231     6.0000    -0.0231     3.8447     3.8447    -0.0000
  1 C      5.9324     6.0000     0.0676     4.0108     4.0108     0.0000
  2 N      7.1719     7.0000    -0.1719     3.0909     3.0909    -0.0000
  3 C      5.9176     6.0000     0.0824     4.1038     4.1038    -0.0000
  4 N      7.1724     7.0000    -0.1724     3.0909     3.0909     0.0000
  5 C      5.9323     6.0000     0.0677     4.0107     4.0107    -0.0000
  6 H      0.9635     1.0000     0.0365     0.9857     0.9857    -0.0000
  7 H      0.9615     1.0000     0.0385     0.9858     0.9858     0.0000
  8 H      0.9639     1.0000     0.0361     0.9897     0.9897    -0.0000
  9 H      0.9614     1.0000     0.0386     0.9857     0.9857     0.0000

  Mayer bond orders larger than 0.100000
B(  0-C ,  1-C ) :   1.3991 B(  0-C ,  5-C ) :   1.3992 B(  0-C ,  6-H ) :   0.9711 
B(  1-C ,  2-N ) :   1.5041 B(  1-C ,  7-H ) :   0.9752 B(  2-N ,  3-C ) :   1.4995 
B(  3-C ,  4-N ) :   1.4995 B(  3-C ,  8-H ) :   0.9691 B(  4-N ,  5-C ) :   1.5040 
B(  5-C ,  9-H ) :   0.9750 

-------
TIMINGS
-------

Total SCF time: 0 days 0 hours 1 min 4 sec 

Total time                  ....      64.092 sec
Sum of individual times     ....      63.297 sec  ( 98.8%)

Fock matrix formation       ....      59.920 sec  ( 93.5%)
  Split-RI-J                ....       2.726 sec  (  4.5% of F)
  Chain of spheres X        ....      44.503 sec  ( 74.3% of F)
  XC integration            ....       8.775 sec  ( 14.6% of F)
    Basis function eval.    ....       3.528 sec  ( 40.2% of XC)
    Density eval.           ....       1.992 sec  ( 22.7% of XC)
    XC-Functional eval.     ....       0.878 sec  ( 10.0% of XC)
    XC-Potential eval.      ....       1.960 sec  ( 22.3% of XC)
Diagonalization             ....       0.081 sec  (  0.1%)
Density matrix formation    ....       0.001 sec  (  0.0%)
Population analysis         ....       0.100 sec  (  0.2%)
Initial guess               ....       0.080 sec  (  0.1%)
Orbital Transformation      ....       0.000 sec  (  0.0%)
Orbital Orthonormalization  ....       0.002 sec  (  0.0%)
DIIS solution               ....       0.000 sec  (  0.0%)
SOSCF solution              ....       0.008 sec  (  0.0%)
Grid generation             ....       3.107 sec  (  4.8%)

Maximum memory used throughout the entire SCF-calculation: 56.5 MB

-------------------------   --------------------
FINAL SINGLE POINT ENERGY      -263.981708227670
-------------------------   --------------------

                                *** OPTIMIZATION RUN DONE ***

                            ***************************************
                            *     ORCA property calculations      *
                            ***************************************

                                    ---------------------
                                    Active property flags
                                    ---------------------
   (+) Dipole Moment


------------------------------------------------------------------------------
                       ORCA ELECTRIC PROPERTIES CALCULATION
------------------------------------------------------------------------------

Dipole Moment Calculation                       ... on
Quadrupole Moment Calculation                   ... off
Polarizability Calculation                      ... off
GBWName                                         ... Pyrimidine_DFT.gbw
Electron density                                ... Pyrimidine_DFT.scfp
SHARK General Contraction Test:  Segmented basis detected
   -> Pre-screening matrix found on disk - Trying to read with NShells=48
   -> Passing Pre-screening matrix on to SHARK ...ok
   -> Leaving CheckPreScreeningMatrix
----------------------
SHARK INTEGRAL PACKAGE
----------------------

Number of atoms                             ...     10
Number of basis functions                   ...    104
Number of shells                            ...     48
Maximum angular momentum                    ...      2
Integral batch strategy                     ... SHARK/LIBINT Hybrid
RI-J (if used) integral strategy            ... SPLIT-RIJ (Revised 2003 algorithm where possible)
Printlevel                                  ...      2
Contraction scheme used                     ... SEGMENTED contraction
Coulomb Range Separation                    ... NOT USED
Exchange Range Separation                   ... NOT USED
Finite Nucleus Model                        ... NOT USED
Auxiliary Coulomb fitting basis             ... AVAILABLE
   # of basis functions in Aux-J            ...    338
   # of shells in Aux-J                     ...    110
   Maximum angular momentum in Aux-J        ...      4
Auxiliary J/K fitting basis                 ... NOT available
Auxiliary Correlation fitting basis         ... NOT available
Auxiliary 'external' fitting basis          ... NOT available
Integral threshold                          ...     2.500000e-11
Primitive cut-off                           ...     2.500000e-12
Primitive pair pre-selection threshold      ...     2.500000e-12

The origin for moment calculation is the CENTER OF MASS  = ( 0.000987,  0.000795  0.016272)

-------------
DIPOLE MOMENT
-------------
                                X             Y             Z
Electronic contribution:      0.57290      -0.87736       0.00225
Nuclear contribution   :     -1.22784       1.88372      -0.00484
                        -----------------------------------------
Total Dipole Moment    :     -0.65494       1.00637      -0.00259
                        -----------------------------------------
Magnitude (a.u.)       :      1.20072
Magnitude (Debye)      :      3.05198



--------------------
Rotational spectrum 
--------------------
 
Rotational constants in cm-1:     0.207964     0.202641     0.102634 
Rotational constants in MHz :  6234.591098  6075.025729  3076.887110 

 Dipole components along the rotational axes: 
x,y,z [a.u.] :     0.000267    -1.200717    -0.000009 
x,y,z [Debye]:     0.000678    -3.051981    -0.000024 

 

Timings for individual modules:

Sum of individual times         ...      719.054 sec (=  11.984 min)
GTO integral calculation        ...        4.255 sec (=   0.071 min)   0.6 %
SCF iterations                  ...      540.004 sec (=   9.000 min)  75.1 %
SCF Gradient evaluation         ...      173.943 sec (=   2.899 min)  24.2 %
Geometry relaxation             ...        0.852 sec (=   0.014 min)   0.1 %
                             ****ORCA TERMINATED NORMALLY****
TOTAL RUN TIME: 0 days 0 hours 12 minutes 2 seconds 291 msec
