
                                 *****************
                                 * O   R   C   A *
                                 *****************

                                            #,                                       
                                            ###                                      
                                            ####                                     
                                            #####                                    
                                            ######                                   
                                           ########,                                 
                                     ,,################,,,,,                         
                               ,,#################################,,                 
                          ,,##########################################,,             
                       ,#########################################, ''#####,          
                    ,#############################################,,   '####,        
                  ,##################################################,,,,####,       
                ,###########''''           ''''###############################       
              ,#####''   ,,,,##########,,,,          '''####'''          '####       
            ,##' ,,,,###########################,,,                        '##       
           ' ,,###''''                  '''############,,,                           
         ,,##''                                '''############,,,,        ,,,,,,###''
      ,#''                                            '''#######################'''  
     '                                                          ''''####''''         
             ,#######,   #######,   ,#######,      ##                                
            ,#'     '#,  ##    ##  ,#'     '#,    #''#        ######   ,####,        
            ##       ##  ##   ,#'  ##            #'  '#       #        #'  '#        
            ##       ##  #######   ##           ,######,      #####,   #    #        
            '#,     ,#'  ##    ##  '#,     ,#' ,#      #,         ##   #,  ,#        
             '#######'   ##     ##  '#######'  #'      '#     #####' # '####'        



                  #######################################################
                  #                        -***-                        #
                  #          Department of theory and spectroscopy      #
                  #    Directorship and core code : Frank Neese         #
                  #        Max Planck Institute fuer Kohlenforschung    #
                  #                Kaiser Wilhelm Platz 1               #
                  #                 D-45470 Muelheim/Ruhr               #
                  #                      Germany                        #
                  #                                                     #
                  #                  All rights reserved                #
                  #                        -***-                        #
                  #######################################################


                         Program Version 5.0.4 -  RELEASE  -


 With contributions from (in alphabetic order):
   Daniel Aravena         : Magnetic Suceptibility
   Michael Atanasov       : Ab Initio Ligand Field Theory (pilot matlab implementation)
   Alexander A. Auer      : GIAO ZORA, VPT2 properties, NMR spectrum
   Ute Becker             : Parallelization
   Giovanni Bistoni       : ED, misc. LED, open-shell LED, HFLD
   Martin Brehm           : Molecular dynamics
   Dmytro Bykov           : SCF Hessian
   Vijay G. Chilkuri      : MRCI spin determinant printing, contributions to CSF-ICE
   Dipayan Datta          : RHF DLPNO-CCSD density
   Achintya Kumar Dutta   : EOM-CC, STEOM-CC
   Dmitry Ganyushin       : Spin-Orbit,Spin-Spin,Magnetic field MRCI
   Miquel Garcia          : C-PCM and meta-GGA Hessian, CC/C-PCM, Gaussian charge scheme
   Yang Guo               : DLPNO-NEVPT2, F12-NEVPT2, CIM, IAO-localization
   Andreas Hansen         : Spin unrestricted coupled pair/coupled cluster methods
   Benjamin Helmich-Paris : MC-RPA, TRAH-SCF, COSX integrals
   Lee Huntington         : MR-EOM, pCC
   Robert Izsak           : Overlap fitted RIJCOSX, COSX-SCS-MP3, EOM
   Marcus Kettner         : VPT2
   Christian Kollmar      : KDIIS, OOCD, Brueckner-CCSD(T), CCSD density, CASPT2, CASPT2-K
   Simone Kossmann        : Meta GGA functionals, TD-DFT gradient, OOMP2, MP2 Hessian
   Martin Krupicka        : Initial AUTO-CI
   Lucas Lang             : DCDCAS
   Marvin Lechner         : AUTO-CI (C++ implementation), FIC-MRCC
   Dagmar Lenk            : GEPOL surface, SMD
   Dimitrios Liakos       : Extrapolation schemes; Compound Job, initial MDCI parallelization
   Dimitrios Manganas     : Further ROCIS development; embedding schemes
   Dimitrios Pantazis     : SARC Basis sets
   Anastasios Papadopoulos: AUTO-CI, single reference methods and gradients
   Taras Petrenko         : DFT Hessian,TD-DFT gradient, ASA, ECA, R-Raman, ABS, FL, XAS/XES, NRVS
   Peter Pinski           : DLPNO-MP2, DLPNO-MP2 Gradient
   Christoph Reimann      : Effective Core Potentials
   Marius Retegan         : Local ZFS, SOC
   Christoph Riplinger    : Optimizer, TS searches, QM/MM, DLPNO-CCSD(T), (RO)-DLPNO pert. Triples
   Tobias Risthaus        : Range-separated hybrids, TD-DFT gradient, RPA, STAB
   Michael Roemelt        : Original ROCIS implementation
   Masaaki Saitow         : Open-shell DLPNO-CCSD energy and density
   Barbara Sandhoefer     : DKH picture change effects
   Avijit Sen             : IP-ROCIS
   Kantharuban Sivalingam : CASSCF convergence, NEVPT2, FIC-MRCI
   Bernardo de Souza      : ESD, SOC TD-DFT
   Georgi Stoychev        : AutoAux, RI-MP2 NMR, DLPNO-MP2 response
   Willem Van den Heuvel  : Paramagnetic NMR
   Boris Wezisla          : Elementary symmetry handling
   Frank Wennmohs         : Technical directorship


 We gratefully acknowledge several colleagues who have allowed us to
 interface, adapt or use parts of their codes:
   Stefan Grimme, W. Hujo, H. Kruse, P. Pracht,  : VdW corrections, initial TS optimization,
                  C. Bannwarth, S. Ehlert          DFT functionals, gCP, sTDA/sTD-DF
   Ed Valeev, F. Pavosevic, A. Kumar             : LibInt (2-el integral package), F12 methods
   Garnet Chan, S. Sharma, J. Yang, R. Olivares  : DMRG
   Ulf Ekstrom                                   : XCFun DFT Library
   Mihaly Kallay                                 : mrcc  (arbitrary order and MRCC methods)
   Jiri Pittner, Ondrej Demel                    : Mk-CCSD
   Frank Weinhold                                : gennbo (NPA and NBO analysis)
   Christopher J. Cramer and Donald G. Truhlar   : smd solvation model
   Lars Goerigk                                  : TD-DFT with DH, B97 family of functionals
   V. Asgeirsson, H. Jonsson                     : NEB implementation
   FAccTs GmbH                                   : IRC, NEB, NEB-TS, DLPNO-Multilevel, CI-OPT
                                                   MM, QMMM, 2- and 3-layer-ONIOM, Crystal-QMMM,
                                                   LR-CPCM, SF, NACMEs, symmetry and pop. for TD-DFT,
                                                   nearIR, NL-DFT gradient (VV10), updates on ESD,
                                                   ML-optimized integration grids
   S Lehtola, MJT Oliveira, MAL Marques          : LibXC Library
   Liviu Ungur et al                             : ANISO software


 Your calculation uses the libint2 library for the computation of 2-el integrals
 For citations please refer to: http://libint.valeyev.net

 Your ORCA version has been built with support for libXC version: 5.1.0
 For citations please refer to: https://tddft.org/programs/libxc/

 This ORCA versions uses:
   CBLAS   interface :  Fast vector & matrix operations
   LAPACKE interface :  Fast linear algebra routines
   SCALAPACK package :  Parallel linear algebra routines
   Shared memory     :  Shared parallel matrices
   BLAS/LAPACK       :  OpenBLAS 0.3.15  USE64BITINT DYNAMIC_ARCH NO_AFFINITY SkylakeX SINGLE_THREADED
        Core in use  :  SkylakeX
   Copyright (c) 2011-2014, The OpenBLAS Project


================================================================================

----- Orbital basis set information -----
Your calculation utilizes the basis: def2-SVP
   F. Weigend and R. Ahlrichs, Phys. Chem. Chem. Phys. 7, 3297 (2005).

----- AuxJ basis set information -----
Your calculation utilizes the auxiliary basis: def2/J
   F. Weigend, Phys. Chem. Chem. Phys. 8, 1057 (2006).

================================================================================
                                        WARNINGS
                       Please study these warnings very carefully!
================================================================================


WARNING: Geometry Optimization
  ===> : Switching off AutoStart
         For restart on a previous wavefunction, please use MOREAD

INFO   : the flag for use of the SHARK integral package has been found!

================================================================================
                                       INPUT FILE
================================================================================
NAME = Nicotine_DFT.inp
|  1> ## avogadro generated ORCA input file 
|  2> # Advanced Mode
|  3> # 
|  4> ! B3LYP OPT def2-SVP NormalPrint defgrid2 NormalSCF 
|  5> 
|  6> ! CPCM
|  7> %cpcm
|  8> epsilon 69.0
|  9> refrac 1.34
| 10> end
| 11> 
| 12> %scf
| 13> 	MaxIter 125
| 14> 	CNVDIIS 1
| 15> 	CNVSOSCF 1 
| 16> end
| 17> 
| 18> * xyz 0 1
| 19>    C        1.38002        0.95096        1.01517
| 20>    N        2.22562        0.05960        0.21226
| 21>    C        3.42430        0.77786       -0.25449
| 22>    C        4.47647        0.62436        0.83831
| 23>    C        3.95081       -0.47531        1.75354
| 24>    C        2.78062       -1.08664        0.97719
| 25>    H        3.22020       -1.77614        0.23919
| 26>    C        1.77704       -1.92045        1.73633
| 27>    C        0.68767       -2.46884        1.05666
| 28>    N       -0.25785       -3.25731        1.62106
| 29>    C       -0.11559       -3.52289        2.93436
| 30>    C        0.92890       -3.04242        3.70444
| 31>    C        1.88840       -2.23635        3.09396
| 32>    H        1.04437        1.79598        0.40272
| 33>    H        1.88719        1.35726        1.89673
| 34>    H        0.46892        0.44257        1.34609
| 35>    H        3.23603        1.82718       -0.50820
| 36>    H        3.78163        0.29565       -1.17310
| 37>    H        4.60502        1.55513        1.40149
| 38>    H        5.44629        0.35182        0.40873
| 39>    H        3.63197       -0.02805        2.70254
| 40>    H        4.72507       -1.21596        1.98087
| 41>    H        0.54036       -2.27468       -0.00396
| 42>    H       -0.88594       -4.15520        3.36562
| 43>    H        0.99816       -3.29333        4.75692
| 44>    H        2.71547       -1.87017        3.69458
| 45> *
| 46> 
| 47> 
| 48>                          ****END OF INPUT****
================================================================================

                       *****************************
                       * Geometry Optimization Run *
                       *****************************

Geometry optimization settings:
Update method            Update   .... BFGS
Choice of coordinates    CoordSys .... Z-matrix Internals
Initial Hessian          InHess   .... Almoef's Model

Convergence Tolerances:
Energy Change            TolE     ....  5.0000e-06 Eh
Max. Gradient            TolMAXG  ....  3.0000e-04 Eh/bohr
RMS Gradient             TolRMSG  ....  1.0000e-04 Eh/bohr
Max. Displacement        TolMAXD  ....  4.0000e-03 bohr
RMS Displacement         TolRMSD  ....  2.0000e-03 bohr
Strict Convergence                ....  False
------------------------------------------------------------------------------
                        ORCA OPTIMIZATION COORDINATE SETUP
------------------------------------------------------------------------------

The optimization will be done in new redundant internal coordinates
Making redundant internal coordinates   ...  (new redundants) done
Evaluating the initial hessian          ...  (Almloef) done
Evaluating the coordinates              ...  done
Calculating the B-matrix                .... done
Calculating the G-matrix                .... done
Diagonalizing the G-matrix              .... done
Small eigenvalue found = 1.506e-02
The first mode is                       ....   75
The number of degrees of freedom        ....   72

    -----------------------------------------------------------------
                    Redundant Internal Coordinates


    -----------------------------------------------------------------
         Definition                    Initial Value    Approx d2E/dq
    -----------------------------------------------------------------
      1. B(N   1,C   0)                  1.4677         0.420596   
      2. B(C   2,N   1)                  1.4733         0.412088   
      3. B(C   3,C   2)                  1.5247         0.380862   
      4. B(C   4,C   3)                  1.5242         0.381596   
      5. B(C   5,C   4)                  1.5316         0.371390   
      6. B(C   5,N   1)                  1.4856         0.393868   
      7. B(H   6,C   5)                  1.1015         0.345214   
      8. B(C   7,C   5)                  1.5095         0.402738   
      9. B(C   8,C   7)                  1.3962         0.610698   
     10. B(N   9,C   8)                  1.3543         0.637921   
     11. B(C  10,N   9)                  1.3474         0.654360   
     12. B(C  11,C  10)                  1.3838         0.639248   
     13. B(C  12,C  11)                  1.3939         0.615813   
     14. B(C  12,C   7)                  1.3983         0.605946   
     15. B(H  13,C   0)                  1.0963         0.351896   
     16. B(H  14,C   0)                  1.0952         0.353295   
     17. B(H  15,C   0)                  1.0946         0.354112   
     18. B(H  16,C   2)                  1.0958         0.352444   
     19. B(H  17,C   2)                  1.0973         0.350578   
     20. B(H  18,C   3)                  1.0955         0.352951   
     21. B(H  19,C   3)                  1.0952         0.353343   
     22. B(H  20,C   4)                  1.0965         0.351610   
     23. B(H  21,C   4)                  1.0953         0.353134   
     24. B(H  22,C   8)                  1.0883         0.362407   
     25. B(H  23,C  10)                  1.0859         0.365527   
     26. B(H  24,C  11)                  1.0842         0.367869   
     27. B(H  25,C  12)                  1.0858         0.365752   
     28. A(N   1,C   0,H  13)          109.8099         0.327482   
     29. A(N   1,C   0,H  15)          111.2768         0.327822   
     30. A(H  13,C   0,H  15)          105.7871         0.289029   
     31. A(N   1,C   0,H  14)          113.5055         0.327697   
     32. A(H  14,C   0,H  15)          108.3259         0.289208   
     33. A(H  13,C   0,H  14)          107.7892         0.288924   
     34. A(C   2,N   1,C   5)          103.6108         0.368238   
     35. A(C   0,N   1,C   2)          110.2413         0.372419   
     36. A(C   0,N   1,C   5)          113.7121         0.369533   
     37. A(C   3,C   2,H  16)          112.3885         0.324203   
     38. A(N   1,C   2,H  17)          108.4166         0.326180   
     39. A(N   1,C   2,C   3)          106.5769         0.368423   
     40. A(N   1,C   2,H  16)          113.6024         0.326466   
     41. A(C   3,C   2,H  17)          109.3321         0.323921   
     42. A(H  16,C   2,H  17)          106.4347         0.288645   
     43. A(C   2,C   3,C   4)          105.3672         0.365882   
     44. A(C   4,C   3,H  19)          111.1857         0.324441   
     45. A(H  18,C   3,H  19)          108.0103         0.289066   
     46. A(C   2,C   3,H  19)          110.7940         0.324339   
     47. A(C   4,C   3,H  18)          110.1680         0.324382   
     48. A(C   2,C   3,H  18)          111.3402         0.324280   
     49. A(H  20,C   4,H  21)          107.5621         0.288867   
     50. A(C   3,C   4,C   5)          104.3058         0.364308   
     51. A(C   5,C   4,H  20)          112.2934         0.322741   
     52. A(C   5,C   4,H  21)          112.0480         0.322970   
     53. A(C   3,C   4,H  21)          111.6350         0.324410   
     54. A(C   3,C   4,H  20)          109.0071         0.324179   
     55. A(N   1,C   5,C   4)          103.7957         0.364006   
     56. A(H   6,C   5,C   7)          104.8622         0.326080   
     57. A(C   4,C   5,C   7)          118.2623         0.367689   
     58. A(N   1,C   5,C   7)          115.8969         0.369096   
     59. A(C   4,C   5,H   6)          106.5326         0.321772   
     60. A(N   1,C   5,H   6)          106.6836         0.322947   
     61. A(C   5,C   7,C   8)          119.3972         0.400895   
     62. A(C   8,C   7,C  12)          116.4891         0.431107   
     63. A(C   5,C   7,C  12)          124.0623         0.400343   
     64. A(C   7,C   8,N   9)          124.7858         0.432264   
     65. A(N   9,C   8,H  22)          114.5518         0.352812   
     66. A(C   7,C   8,H  22)          120.6618         0.352388   
     67. A(C   8,N   9,C  10)          116.5656         0.434803   
     68. A(C  11,C  10,H  23)          121.1062         0.355643   
     69. A(N   9,C  10,H  23)          115.2742         0.354851   
     70. A(N   9,C  10,C  11)          123.6193         0.437836   
     71. A(C  12,C  11,H  24)          120.9973         0.353781   
     72. A(C  10,C  11,H  24)          120.5370         0.356028   
     73. A(C  10,C  11,C  12)          118.4652         0.435930   
     74. A(C  11,C  12,H  25)          118.4957         0.353435   
     75. A(C   7,C  12,H  25)          121.4361         0.352470   
     76. A(C   7,C  12,C  11)          120.0676         0.431754   
     77. D(C   5,N   1,C   0,H  15)    -65.8544         0.015084   
     78. D(C   2,N   1,C   0,H  15)    178.3028         0.015084   
     79. D(C   5,N   1,C   0,H  14)     56.6471         0.015084   
     80. D(C   2,N   1,C   0,H  13)     61.5204         0.015084   
     81. D(C   5,N   1,C   0,H  13)    177.3631         0.015084   
     82. D(C   2,N   1,C   0,H  14)    -59.1957         0.015084   
     83. D(H  17,C   2,N   1,C   0)   -154.4527         0.014485   
     84. D(H  17,C   2,N   1,C   5)     83.5231         0.014485   
     85. D(C   3,C   2,N   1,C   0)     87.9560         0.014485   
     86. D(H  16,C   2,N   1,C   0)    -36.3594         0.014485   
     87. D(H  16,C   2,N   1,C   5)   -158.3836         0.014485   
     88. D(C   3,C   2,N   1,C   5)    -34.0683         0.014485   
     89. D(C   4,C   3,C   2,H  17)   -103.3576         0.011558   
     90. D(C   4,C   3,C   2,H  16)    138.6867         0.011558   
     91. D(H  18,C   3,C   2,H  16)     19.2638         0.011558   
     92. D(H  19,C   3,C   2,H  16)   -100.9640         0.011558   
     93. D(H  19,C   3,C   2,N   1)    133.9763         0.011558   
     94. D(H  18,C   3,C   2,H  17)    137.2196         0.011558   
     95. D(H  19,C   3,C   2,H  17)     16.9917         0.011558   
     96. D(C   4,C   3,C   2,N   1)     13.6270         0.011558   
     97. D(H  18,C   3,C   2,N   1)   -105.7958         0.011558   
     98. D(H  21,C   4,C   3,H  19)     12.5277         0.011601   
     99. D(H  21,C   4,C   3,H  18)   -107.1828         0.011601   
    100. D(H  21,C   4,C   3,C   2)    132.6191         0.011601   
    101. D(H  20,C   4,C   3,H  19)    131.2101         0.011601   
    102. D(H  20,C   4,C   3,H  18)     11.4996         0.011601   
    103. D(H  20,C   4,C   3,C   2)   -108.6986         0.011601   
    104. D(C   5,C   4,C   3,H  19)   -108.6637         0.011601   
    105. D(C   5,C   4,C   3,H  18)    131.6257         0.011601   
    106. D(C   5,C   4,C   3,C   2)     11.4276         0.011601   
    107. D(C   4,C   5,N   1,C   0)    -78.6226         0.013254   
    108. D(C   7,C   5,C   4,H  21)     76.8538         0.011021   
    109. D(C   7,C   5,C   4,H  20)    -44.3373         0.011021   
    110. D(H   6,C   5,C   4,H  21)    -40.7494         0.011021   
    111. D(H   6,C   5,C   4,H  20)   -161.9405         0.011021   
    112. D(H   6,C   5,C   4,C   3)     80.1672         0.011021   
    113. D(N   1,C   5,C   4,H  21)   -153.1604         0.011021   
    114. D(N   1,C   5,C   4,H  20)     85.6485         0.011021   
    115. D(N   1,C   5,C   4,C   3)    -32.2438         0.011021   
    116. D(C   7,C   5,N   1,C   2)    172.4490         0.013254   
    117. D(C   7,C   5,N   1,C   0)     52.7700         0.013254   
    118. D(C   7,C   5,C   4,C   3)   -162.2296         0.011021   
    119. D(H   6,C   5,N   1,C   2)    -71.2450         0.013254   
    120. D(H   6,C   5,N   1,C   0)    169.0760         0.013254   
    121. D(C   4,C   5,N   1,C   2)     41.0565         0.013254   
    122. D(C  12,C   7,C   5,H   6)    114.6249         0.012030   
    123. D(C  12,C   7,C   5,C   4)     -3.8596         0.012030   
    124. D(C  12,C   7,C   5,N   1)   -128.0512         0.012030   
    125. D(C   8,C   7,C   5,H   6)    -62.6754         0.012030   
    126. D(C   8,C   7,C   5,C   4)    178.8401         0.012030   
    127. D(C   8,C   7,C   5,N   1)     54.6485         0.012030   
    128. D(H  22,C   8,C   7,C  12)   -179.4395         0.025761   
    129. D(H  22,C   8,C   7,C   5)     -1.9382         0.025761   
    130. D(N   9,C   8,C   7,C  12)      0.8613         0.025761   
    131. D(N   9,C   8,C   7,C   5)    178.3625         0.025761   
    132. D(C  10,N   9,C   8,H  22)   -179.9346         0.029985   
    133. D(C  10,N   9,C   8,C   7)     -0.2190         0.029985   
    134. D(H  23,C  10,N   9,C   8)    179.8945         0.031680   
    135. D(C  11,C  10,N   9,C   8)     -0.3061         0.031680   
    136. D(H  24,C  11,C  10,H  23)      0.2097         0.028387   
    137. D(H  24,C  11,C  10,N   9)   -179.5784         0.028387   
    138. D(C  12,C  11,C  10,H  23)    179.9282         0.028387   
    139. D(C  12,C  11,C  10,N   9)      0.1401         0.028387   
    140. D(H  25,C  12,C  11,C  10)   -179.1806         0.026220   
    141. D(C   7,C  12,C  11,H  24)   -179.7388         0.026220   
    142. D(C   7,C  12,C  11,C  10)      0.5441         0.026220   
    143. D(H  25,C  12,C   7,C   8)    178.7215         0.025339   
    144. D(H  25,C  12,C   7,C   5)      1.3495         0.025339   
    145. D(C  11,C  12,C   7,C   8)     -0.9948         0.025339   
    146. D(H  25,C  12,C  11,H  24)      0.5365         0.026220   
    147. D(C  11,C  12,C   7,C   5)   -178.3669         0.025339   
    -----------------------------------------------------------------

Number of atoms                         .... 26
Number of degrees of freedom            .... 147

         *************************************************************
         *                GEOMETRY OPTIMIZATION CYCLE   1            *
         *************************************************************
---------------------------------
CARTESIAN COORDINATES (ANGSTROEM)
---------------------------------
  C      1.380020    0.950960    1.015170
  N      2.225620    0.059600    0.212260
  C      3.424300    0.777860   -0.254490
  C      4.476470    0.624360    0.838310
  C      3.950810   -0.475310    1.753540
  C      2.780620   -1.086640    0.977190
  H      3.220200   -1.776140    0.239190
  C      1.777040   -1.920450    1.736330
  C      0.687670   -2.468840    1.056660
  N     -0.257850   -3.257310    1.621060
  C     -0.115590   -3.522890    2.934360
  C      0.928900   -3.042420    3.704440
  C      1.888400   -2.236350    3.093960
  H      1.044370    1.795980    0.402720
  H      1.887190    1.357260    1.896730
  H      0.468920    0.442570    1.346090
  H      3.236030    1.827180   -0.508200
  H      3.781630    0.295650   -1.173100
  H      4.605020    1.555130    1.401490
  H      5.446290    0.351820    0.408730
  H      3.631970   -0.028050    2.702540
  H      4.725070   -1.215960    1.980870
  H      0.540360   -2.274680   -0.003960
  H     -0.885940   -4.155200    3.365620
  H      0.998160   -3.293330    4.756920
  H      2.715470   -1.870170    3.694580

----------------------------
CARTESIAN COORDINATES (A.U.)
----------------------------
  NO LB      ZA    FRAG     MASS         X           Y           Z
   0 C     6.0000    0    12.011    2.607860    1.797054    1.918393
   1 N     7.0000    0    14.007    4.205812    0.112628    0.401113
   2 C     6.0000    0    12.011    6.470989    1.469942   -0.480916
   3 C     6.0000    0    12.011    8.459302    1.179869    1.584176
   4 C     6.0000    0    12.011    7.465949   -0.898206    3.313710
   5 C     6.0000    0    12.011    5.254610   -2.053452    1.846621
   6 H     1.0000    0     1.008    6.085296   -3.356418    0.452004
   7 C     6.0000    0    12.011    3.358119   -3.629125    3.281188
   8 C     6.0000    0    12.011    1.299508   -4.665431    1.996798
   9 N     7.0000    0    14.007   -0.487266   -6.155424    3.063359
  10 C     6.0000    0    12.011   -0.218433   -6.657297    5.545137
  11 C     6.0000    0    12.011    1.755367   -5.749341    7.000377
  12 C     6.0000    0    12.011    3.568559   -4.226089    5.846737
  13 H     1.0000    0     1.008    1.973573    3.393910    0.761031
  14 H     1.0000    0     1.008    3.566272    2.564850    3.584300
  15 H     1.0000    0     1.008    0.886130    0.836336    2.543741
  16 H     1.0000    0     1.008    6.115210    3.452870   -0.960359
  17 H     1.0000    0     1.008    7.146245    0.558698   -2.216838
  18 H     1.0000    0     1.008    8.702227    2.938770    2.648432
  19 H     1.0000    0     1.008   10.291997    0.664843    0.772388
  20 H     1.0000    0     1.008    6.863429   -0.053007    5.107060
  21 H     1.0000    0     1.008    8.929088   -2.297831    3.743302
  22 H     1.0000    0     1.008    1.021132   -4.298522   -0.007483
  23 H     1.0000    0     1.008   -1.674184   -7.852190    6.360100
  24 H     1.0000    0     1.008    1.886249   -6.223492    8.989276
  25 H     1.0000    0     1.008    5.131495   -3.534109    6.981744

--------------------------------
INTERNAL COORDINATES (ANGSTROEM)
--------------------------------
 C      0   0   0     0.000000000000     0.00000000     0.00000000
 N      1   0   0     1.467728339203     0.00000000     0.00000000
 C      2   1   0     1.473291122793   110.24134013     0.00000000
 C      3   2   1     1.524741223585   106.57687266    87.95595615
 C      4   3   2     1.524217339293   105.36718799    13.62700242
 C      2   1   3     1.485600566269   113.71206124   115.84277449
 H      6   2   1     1.101492090938   106.68358050   169.07596147
 C      6   2   1     1.509538165168   115.89686218    52.76996068
 C      8   6   2     1.396212697944   119.39724568    54.64849621
 N      9   8   6     1.354341305322   124.78577487   178.36254280
 C     10   9   8     1.347415130537   116.56563110   359.78099056
 C     11  10   9     1.383775266219   123.61928006   359.69387203
 C     12  11  10     1.393942224520   118.46516878     0.14005020
 H      1   2   3     1.096273107122   109.80986256    61.52036948
 H      1   2   3     1.095193650685   113.50552156   300.80429027
 H      1   2   3     1.094564593115   111.27684282   178.30283555
 H      3   2   1     1.095849816079   113.60241678   323.64062277
 H      3   2   1     1.097294648260   108.41659490   205.54731445
 H      4   3   2     1.095458628977   111.34017845   254.20416607
 H      4   3   2     1.095156546070   110.79401722   133.97634381
 H      5   4   3     1.096495076688   109.00708063   251.30142758
 H      5   4   3     1.095317259519   111.63498842   132.61907769
 H      9   8   6     1.088261515492   120.66183815   358.06175938
 H     11  10   9     1.085928287780   115.27419951   179.89447384
 H     12  11  10     1.084189524991   120.53695084   180.42160633
 H     13  12  11     1.085761005793   118.49568244   180.81943038

---------------------------
INTERNAL COORDINATES (A.U.)
---------------------------
 C      0   0   0     0.000000000000     0.00000000     0.00000000
 N      1   0   0     2.773604600089     0.00000000     0.00000000
 C      2   1   0     2.784116737616   110.24134013     0.00000000
 C      3   2   1     2.881343337676   106.57687266    87.95595615
 C      4   3   2     2.880353339837   105.36718799    13.62700242
 C      2   1   3     2.807378214648   113.71206124   115.84277449
 H      6   2   1     2.081518390554   106.68358050   169.07596147
 C      6   2   1     2.852613720870   115.89686218    52.76996068
 C      8   6   2     2.638459623817   119.39724568    54.64849621
 N      9   8   6     2.559334158915   124.78577487   178.36254280
 C     10   9   8     2.546245585417   116.56563110   359.78099056
 C     11  10   9     2.614956284048   123.61928006   359.69387203
 C     12  11  10     2.634169050852   118.46516878     0.14005020
 H      1   2   3     2.071655940444   109.80986256    61.52036948
 H      1   2   3     2.069616063403   113.50552156   300.80429027
 H      1   2   3     2.068427316873   111.27684282   178.30283555
 H      3   2   1     2.070856036297   113.60241678   323.64062277
 H      3   2   1     2.073586373429   108.41659490   205.54731445
 H      4   3   2     2.070116799807   111.34017845   254.20416607
 H      4   3   2     2.069545945843   110.79401722   133.97634381
 H      5   4   3     2.072075402132   109.00708063   251.30142758
 H      5   4   3     2.069849650248   111.63498842   132.61907769
 H      9   8   6     2.056516226365   120.66183815   358.06175938
 H     11  10   9     2.052107064982   115.27419951   179.89447384
 H     12  11  10     2.048821279499   120.53695084   180.42160633
 H     13  12  11     2.051790947839   118.49568244   180.81943038

---------------------
BASIS SET INFORMATION
---------------------
There are 3 groups of distinct atoms

 Group   1 Type C   : 7s4p1d contracted to 3s2p1d pattern {511/31/1}
 Group   2 Type N   : 7s4p1d contracted to 3s2p1d pattern {511/31/1}
 Group   3 Type H   : 4s1p contracted to 2s1p pattern {31/1}

Atom   0C    basis set group =>   1
Atom   1N    basis set group =>   2
Atom   2C    basis set group =>   1
Atom   3C    basis set group =>   1
Atom   4C    basis set group =>   1
Atom   5C    basis set group =>   1
Atom   6H    basis set group =>   3
Atom   7C    basis set group =>   1
Atom   8C    basis set group =>   1
Atom   9N    basis set group =>   2
Atom  10C    basis set group =>   1
Atom  11C    basis set group =>   1
Atom  12C    basis set group =>   1
Atom  13H    basis set group =>   3
Atom  14H    basis set group =>   3
Atom  15H    basis set group =>   3
Atom  16H    basis set group =>   3
Atom  17H    basis set group =>   3
Atom  18H    basis set group =>   3
Atom  19H    basis set group =>   3
Atom  20H    basis set group =>   3
Atom  21H    basis set group =>   3
Atom  22H    basis set group =>   3
Atom  23H    basis set group =>   3
Atom  24H    basis set group =>   3
Atom  25H    basis set group =>   3
---------------------------------
AUXILIARY/J BASIS SET INFORMATION
---------------------------------
There are 3 groups of distinct atoms

 Group   1 Type C   : 12s5p4d2f1g contracted to 6s4p3d1f1g pattern {711111/2111/211/2/1}
 Group   2 Type N   : 12s5p4d2f1g contracted to 6s4p3d1f1g pattern {711111/2111/211/2/1}
 Group   3 Type H   : 5s2p1d contracted to 3s1p1d pattern {311/2/1}

Atom   0C    basis set group =>   1
Atom   1N    basis set group =>   2
Atom   2C    basis set group =>   1
Atom   3C    basis set group =>   1
Atom   4C    basis set group =>   1
Atom   5C    basis set group =>   1
Atom   6H    basis set group =>   3
Atom   7C    basis set group =>   1
Atom   8C    basis set group =>   1
Atom   9N    basis set group =>   2
Atom  10C    basis set group =>   1
Atom  11C    basis set group =>   1
Atom  12C    basis set group =>   1
Atom  13H    basis set group =>   3
Atom  14H    basis set group =>   3
Atom  15H    basis set group =>   3
Atom  16H    basis set group =>   3
Atom  17H    basis set group =>   3
Atom  18H    basis set group =>   3
Atom  19H    basis set group =>   3
Atom  20H    basis set group =>   3
Atom  21H    basis set group =>   3
Atom  22H    basis set group =>   3
Atom  23H    basis set group =>   3
Atom  24H    basis set group =>   3
Atom  25H    basis set group =>   3
------------------------------------------------------------------------------
                           ORCA GTO INTEGRAL CALCULATION
                           -- RI-GTO INTEGRALS CHOSEN --
------------------------------------------------------------------------------
------------------------------------------------------------------------------
                   ___                                                        
                  /   \      - P O W E R E D   B Y -                         
                 /     \                                                     
                 |  |  |   _    _      __       _____    __    __             
                 |  |  |  | |  | |    /  \     |  _  \  |  |  /  |          
                  \  \/   | |  | |   /    \    | | | |  |  | /  /          
                 / \  \   | |__| |  /  /\  \   | |_| |  |  |/  /          
                |  |  |   |  __  | /  /__\  \  |    /   |      \           
                |  |  |   | |  | | |   __   |  |    \   |  |\   \          
                \     /   | |  | | |  |  |  |  | |\  \  |  | \   \       
                 \___/    |_|  |_| |__|  |__|  |_| \__\ |__|  \__/        
                                                                              
                      - O R C A' S   B I G   F R I E N D -                    
                                      &                                       
                       - I N T E G R A L  F E E D E R -                       
                                                                              
 v1 FN, 2020, v2 2021                                                         
------------------------------------------------------------------------------


Reading SHARK input file Nicotine_DFT.SHARKINP.tmp ... SHARK General Contraction Test:  Segmented basis detected
   -> Pre-screening matrix *NOT* found on disk - recalculating with NShells=114
   -> Leaving CheckPreScreeningMatrix
ok
----------------------
SHARK INTEGRAL PACKAGE
----------------------

Number of atoms                             ...     26
Number of basis functions                   ...    238
Number of shells                            ...    114
Maximum angular momentum                    ...      2
Integral batch strategy                     ... SHARK/LIBINT Hybrid
RI-J (if used) integral strategy            ... SPLIT-RIJ (Revised 2003 algorithm where possible)
Printlevel                                  ...      2
Contraction scheme used                     ... SEGMENTED contraction
Coulomb Range Separation                    ... NOT USED
Exchange Range Separation                   ... NOT USED
Finite Nucleus Model                        ... NOT USED
Auxiliary Coulomb fitting basis             ... AVAILABLE
   # of basis functions in Aux-J            ...    742
   # of shells in Aux-J                     ...    250
   Maximum angular momentum in Aux-J        ...      4
Auxiliary J/K fitting basis                 ... NOT available
Auxiliary Correlation fitting basis         ... NOT available
Auxiliary 'external' fitting basis          ... NOT available
Integral threshold                          ...     2.500000e-11
Primitive cut-off                           ...     2.500000e-12
Primitive pair pre-selection threshold      ...     2.500000e-12

Calculating pre-screening integrals         ... done (  0.1 sec) Dimension = 114
Organizing shell pair data                  ... done (  0.1 sec)
Shell pair information
Total number of shell pairs                 ...      6555
Shell pairs after pre-screening             ...      5884
Total number of primitive shell pairs       ...     23203
Primitive shell pairs kept                  ...     14720
          la=0 lb=0:   1895 shell pairs
          la=1 lb=0:   2199 shell pairs
          la=1 lb=1:    664 shell pairs
          la=2 lb=0:    669 shell pairs
          la=2 lb=1:    392 shell pairs
          la=2 lb=2:     65 shell pairs

Calculating one electron integrals          ... done (  0.1 sec)
Calculating RI/J V-Matrix + Cholesky decomp.... done (  0.2 sec)
Calculating Nuclear repulsion               ... done (  0.0 sec) ENN=    698.782060587948 Eh

SHARK setup successfully completed in   0.8 seconds

Maximum memory used throughout the entire GTOINT-calculation: 38.6 MB
-------------------------------------------------------------------------------
                                 ORCA SCF
-------------------------------------------------------------------------------

------------
SCF SETTINGS
------------
Hamiltonian:
 Density Functional     Method          .... DFT(GTOs)
 Exchange Functional    Exchange        .... B88
   X-Alpha parameter    XAlpha          ....  0.666667
   Becke's b parameter  XBeta           ....  0.004200
 Correlation Functional Correlation     .... LYP
 LDA part of GGA corr.  LDAOpt          .... VWN-5
 Gradients option       PostSCFGGA      .... off
 Hybrid DFT is turned on
   Fraction HF Exchange ScalHFX         ....  0.200000
   Scaling of DF-GGA-X  ScalDFX         ....  0.720000
   Scaling of DF-GGA-C  ScalDFC         ....  0.810000
   Scaling of DF-LDA-C  ScalLDAC        ....  1.000000
   Perturbative correction              ....  0.000000
   Density functional embedding theory  .... OFF
   NL short-range parameter             ....  4.800000
 RI-approximation to the Coulomb term is turned on
   Number of AuxJ basis functions       .... 742
   RIJ-COSX (HFX calculated with COS-X)).... on


General Settings:
 Integral files         IntName         .... Nicotine_DFT
 Hartree-Fock type      HFTyp           .... RHF
 Total Charge           Charge          ....    0
 Multiplicity           Mult            ....    1
 Number of Electrons    NEL             ....   88
 Basis Dimension        Dim             ....  238
 Nuclear Repulsion      ENuc            ....    698.7820605879 Eh

Convergence Acceleration:
 DIIS                   CNVDIIS         .... on
   Start iteration      DIISMaxIt       ....    12
   Startup error        DIISStart       ....  0.200000
   # of expansion vecs  DIISMaxEq       ....     5
   Bias factor          DIISBfac        ....   1.050
   Max. coefficient     DIISMaxC        ....  10.000
 Trust-Rad. Augm. Hess. CNVTRAH         .... auto
   Auto Start mean grad. ratio tolernc. ....  1.125000
   Auto Start start iteration           ....    20
   Auto Start num. interpolation iter.  ....    10
   Max. Number of Micro iterations      ....    16
   Max. Number of Macro iterations      .... Maxiter - #DIIS iter
   Number of Davidson start vectors     ....     2
   Converg. threshold I  (grad. norm)   ....   1.000e-05
   Converg. threshold II (energy diff.) ....   1.000e-08
   Grad. Scal. Fac. for Micro threshold ....   0.100
   Minimum threshold for Micro iter.    ....   0.010
   NR start threshold (gradient norm)   ....   0.001
   Initial trust radius                 ....   0.400
   Minimum AH scaling param. (alpha)    ....   1.000
   Maximum AH scaling param. (alpha)    .... 1000.000
   Orbital update algorithm             .... Taylor
   White noise on init. David. guess    .... on
   Maximum white noise                  ....   0.010
   Quad. conv. algorithm                .... NR
 SOSCF                  CNVSOSCF        .... on
   Start iteration      SOSCFMaxIt      ....   150
   Startup grad/error   SOSCFStart      ....  0.003300
 Level Shifting         CNVShift        .... on
   Level shift para.    LevelShift      ....    0.2500
   Turn off err/grad.   ShiftErr        ....    0.0010
 Zerner damping         CNVZerner       .... off
 Static damping         CNVDamp         .... on
   Fraction old density DampFac         ....    0.7000
   Max. Damping (<1)    DampMax         ....    0.9800
   Min. Damping (>=0)   DampMin         ....    0.0000
   Turn off err/grad.   DampErr         ....    0.1000
 Fernandez-Rico         CNVRico         .... off

SCF Procedure:
 Maximum # iterations   MaxIter         ....   125
 SCF integral mode      SCFMode         .... Direct
   Integral package                     .... SHARK and LIBINT hybrid scheme
 Reset frequency        DirectResetFreq ....    20
 Integral Threshold     Thresh          ....  2.500e-11 Eh
 Primitive CutOff       TCut            ....  2.500e-12 Eh

Convergence Tolerance:
 Convergence Check Mode ConvCheckMode   .... Total+1el-Energy
 Convergence forced     ConvForced      .... 0
 Energy Change          TolE            ....  1.000e-08 Eh
 1-El. energy change                    ....  1.000e-05 Eh
 Orbital Gradient       TolG            ....  1.000e-05
 Orbital Rotation angle TolX            ....  1.000e-05
 DIIS Error             TolErr          ....  5.000e-07


Diagonalization of the overlap matrix:
Smallest eigenvalue                        ... 5.481e-04
Time for diagonalization                   ...    0.008 sec
Threshold for overlap eigenvalues          ... 1.000e-08
Number of eigenvalues below threshold      ... 0
Time for construction of square roots      ...    0.006 sec
Total time needed                          ...    0.015 sec

SHARK General Contraction Test:  Segmented basis detected
   -> Pre-screening matrix found on disk - Trying to read with NShells=114
   -> Passing Pre-screening matrix on to SHARK ...ok
   -> Leaving CheckPreScreeningMatrix
----------------------
SHARK INTEGRAL PACKAGE
----------------------

Number of atoms                             ...     26
Number of basis functions                   ...    238
Number of shells                            ...    114
Maximum angular momentum                    ...      2
Integral batch strategy                     ... SHARK/LIBINT Hybrid
RI-J (if used) integral strategy            ... SPLIT-RIJ (Revised 2003 algorithm where possible)
Printlevel                                  ...      2
Contraction scheme used                     ... SEGMENTED contraction
Coulomb Range Separation                    ... NOT USED
Exchange Range Separation                   ... NOT USED
Finite Nucleus Model                        ... NOT USED
Auxiliary Coulomb fitting basis             ... AVAILABLE
   # of basis functions in Aux-J            ...    742
   # of shells in Aux-J                     ...    250
   Maximum angular momentum in Aux-J        ...      4
Auxiliary J/K fitting basis                 ... NOT available
Auxiliary Correlation fitting basis         ... NOT available
Auxiliary 'external' fitting basis          ... NOT available
Integral threshold                          ...     2.500000e-11
Primitive cut-off                           ...     2.500000e-12
Primitive pair pre-selection threshold      ...     2.500000e-12

Time for model grid setup =    0.993 sec

------------------------------
INITIAL GUESS: MODEL POTENTIAL
------------------------------
Loading Hartree-Fock densities                     ... done
Calculating cut-offs                               ... done
Initializing the effective Hamiltonian             ... done
Setting up the integral package (SHARK)            ... done
Starting the Coulomb interaction                   ...     -> Generating integrals - 
    -> L=0 0 :     0.306 sec done=    369776 skipped=      6736 prim-skipped=         0
    -> L=1 0 :     0.387 sec done=    425456 skipped=      9998 prim-skipped=         0
    -> L=1 1 :     0.181 sec done=    128870 skipped=      2358 prim-skipped=         0
    -> L=2 0 :     0.043 sec done=    130718 skipped=      2288 prim-skipped=         0
    -> L=2 1 :     0.091 sec done=     75340 skipped=      1350 prim-skipped=         0
    -> L=2 2 :     0.072 sec done=     12294 skipped=       104 prim-skipped=         0
done (   1.1 sec)
Reading the grid                                   ... done
Mapping shells                                     ... done
Starting the XC term evaluation                    ... done (   1.1 sec)
  promolecular density results
     # of electrons  =     87.996315793
     EX              =    -68.742755860
     EC              =     -2.931926097
     EX+EC           =    -71.674681957
Transforming the Hamiltonian                       ... done (   0.0 sec)
Diagonalizing the Hamiltonian                      ... done (   0.0 sec)
Back transforming the eigenvectors                 ... done (   0.0 sec)
Now organizing SCF variables                       ... done
                      ------------------
                      INITIAL GUESS DONE (   3.2 sec)
                      ------------------
-------------------
DFT GRID GENERATION
-------------------

General Integration Accuracy     IntAcc      ... 4.388
Radial Grid Type                 RadialGrid  ... OptM3 with GC (2021)
Angular Grid (max. ang.)         AngularGrid ... 4 (Lebedev-302)
Angular grid pruning method      GridPruning ... 4 (adaptive)
Weight generation scheme         WeightScheme... Becke
Basis function cutoff            BFCut       ... 1.0000e-11
Integration weight cutoff        WCut        ... 1.0000e-14
Angular grids for H and He will be reduced by one unit
Partially contracted basis set               ... off
Rotationally invariant grid construction     ... off

Total number of grid points                  ...   116368
Total number of batches                      ...     1833
Average number of points per batch           ...       63
Average number of grid points per atom       ...     4476
Time for grid setup =    4.930 sec

--------------------
COSX GRID GENERATION
--------------------

GRIDX 1
-------
General Integration Accuracy     IntAcc      ... 3.816
Radial Grid Type                 RadialGrid  ... OptM3 with GC (2021)
Angular Grid (max. ang.)         AngularGrid ... 1 (Lebedev-50)
Angular grid pruning method      GridPruning ... 4 (adaptive)
Weight generation scheme         WeightScheme... Becke
Basis function cutoff            BFCut       ... 1.0000e-11
Integration weight cutoff        WCut        ... 1.0000e-14
Angular grids for H and He will be reduced by one unit
Partially contracted basis set               ... on
Rotationally invariant grid construction     ... off

Total number of grid points                  ...    14840
Total number of batches                      ...      246
Average number of points per batch           ...       60
Average number of grid points per atom       ...      571
UseSFitting                                  ... on

GRIDX 2
-------
General Integration Accuracy     IntAcc      ... 4.020
Radial Grid Type                 RadialGrid  ... OptM3 with GC (2021)
Angular Grid (max. ang.)         AngularGrid ... 2 (Lebedev-110)
Angular grid pruning method      GridPruning ... 4 (adaptive)
Weight generation scheme         WeightScheme... Becke
Basis function cutoff            BFCut       ... 1.0000e-11
Integration weight cutoff        WCut        ... 1.0000e-14
Angular grids for H and He will be reduced by one unit
Partially contracted basis set               ... on
Rotationally invariant grid construction     ... off

Total number of grid points                  ...    31557
Total number of batches                      ...      506
Average number of points per batch           ...       62
Average number of grid points per atom       ...     1214
UseSFitting                                  ... on

GRIDX 3
-------
General Integration Accuracy     IntAcc      ... 4.338
Radial Grid Type                 RadialGrid  ... OptM3 with GC (2021)
Angular Grid (max. ang.)         AngularGrid ... 3 (Lebedev-194)
Angular grid pruning method      GridPruning ... 4 (adaptive)
Weight generation scheme         WeightScheme... Becke
Basis function cutoff            BFCut       ... 1.0000e-11
Integration weight cutoff        WCut        ... 1.0000e-14
Angular grids for H and He will be reduced by one unit
Partially contracted basis set               ... on
Rotationally invariant grid construction     ... off

Total number of grid points                  ...    68940
Total number of batches                      ...     1089
Average number of points per batch           ...       63
Average number of grid points per atom       ...     2652
UseSFitting                                  ... on

Time for X-Grid setup             =    5.024 sec


--------------------
CPCM SOLVATION MODEL
--------------------
CPCM parameters:
  Epsilon                                         ...      69.0000
  Refrac                                          ...       1.3400
  Rsolv                                           ...       1.3000
  Surface type                                    ... GAUSSIAN VDW
  Epsilon function type                           ...         CPCM
Radii:
 Radius for C  used is    3.8550 Bohr (=   2.0400 Ang.)
 Radius for N  used is    3.5149 Bohr (=   1.8600 Ang.)
 Radius for H  used is    2.4944 Bohr (=   1.3200 Ang.)
Calculating surface                               ...        done! (  0.0s)
GEPOL surface points                              ...         1380
GEPOL Volume                                      ...    1422.5199
GEPOL Surface-area                                ...     757.7579
Calculating surface distance matrix               ...        done! (  0.1s)
Performing Cholesky decomposition & store         ...        done! (  0.1s)
Overall time for CPCM initialization              ...                 0.2s
--------------
SCF ITERATIONS
--------------
               ***  Starting incremental Fock matrix formation  ***
==>> SHARK/AuxDens: NDens=1 Thresh =     2.500000e-11 TCut=    2.500000e-12 Lmax=2 LmaxAux=4
    -> Making Hermite density - ok     0.023 sec
    -> Making Aux-basis density - (lmax=2)
    -> L=0 0:    0.378 sec done=    439261 ( 92.7%) skipped=     34356 
    -> L=1 0:    0.534 sec done=    499859 ( 91.0%) skipped=     49569 
    -> L=1 1:    0.264 sec done=    147298 ( 89.5%) skipped=     17202 
    -> L=2 0:    0.120 sec done=    150978 ( 90.5%) skipped=     15768 
    -> L=2 1:    0.173 sec done=     84968 ( 88.5%) skipped=     11032 
    -> L=2 2:    0.011 sec done=     14045 ( 90.6%) skipped=      1455 
    -> Aux basis density formed in    1.5 sec
    -> Solving linear equations - ok (   0.0 sec)
        Auxbasis Hermite Density:
        P|s>                     ...  0.000
        P|p>                     ...  0.000
        P|d>                     ...  0.000
        P|f>                     ...  0.000
        P|g>                     ...  0.000
        Building the Coulomb matrix: 
        J|ss>                          ... done (  0.2 sec) ndone=  2154531 nskipped1=    56731 nskipped2=   103032
        J|ps>                          ... done (  0.4 sec) ndone=  2091441 nskipped1=    48704 nskipped2=    99046
        J|pp>                          ... done (  0.1 sec) ndone=   556052 nskipped1=     6525 nskipped2=    17182
        J|ds>                          ... done (  0.1 sec) ndone=   436097 nskipped1=     7399 nskipped2=    24000
        J|dp>                          ... done (  0.1 sec) ndone=   217117 nskipped1=     3701 nskipped2=     4200
        J|dd>                          ... done (  0.0 sec) ndone=    23705 nskipped1=      556 nskipped2=      405
        Coulomb matrix built in   0.9 sec

        Total time for Split-RI-J                ...    2.422 sec
          (0) Prelude                            ...    0.000 sec
          (1) Hermite density                    ...    0.000 sec
          (2) Aux basis density                  ...    0.000 sec (inner=  0.0)
          (3) Linear equation solution           ...    0.000 sec
          (4) J-Matrix construction              ...    0.911 sec (inner=  0.9)
        ---------------------------------------------------------

                         ----------------------------
                         !        ITERATION     0   !
                         ----------------------------
   Total Energy        :    -498.034822007060 Eh
   Energy Change       :    -498.034822007060 Eh
   MAX-DP              :       0.074731035220
   RMS-DP              :       0.001998535384
   Actual Damping      :       0.7000
   Actual Level Shift  :       0.2500 Eh
   Int. Num. El.       :    87.99989774 (UP=   43.99994887 DN=   43.99994887)
   Exchange            :   -56.35742728
   Correlation         :    -3.48933962

==>> SHARK/AuxDens: NDens=1 Thresh =     2.500000e-11 TCut=    2.500000e-12 Lmax=2 LmaxAux=4
    -> Making Hermite density - ok     0.013 sec
    -> Making Aux-basis density - (lmax=2)
    -> L=0 0:    0.383 sec done=    421163 ( 88.9%) skipped=     52454 
    -> L=1 0:    0.589 sec done=    480564 ( 87.5%) skipped=     68864 
    -> L=1 1:    0.216 sec done=    141670 ( 86.1%) skipped=     22830 
    -> L=2 0:    0.204 sec done=    142116 ( 85.2%) skipped=     24630 
    -> L=2 1:    0.202 sec done=     82092 ( 85.5%) skipped=     13908 
    -> L=2 2:    0.082 sec done=     12766 ( 82.4%) skipped=      2734 
    -> Aux basis density formed in    1.7 sec
    -> Solving linear equations - ok (   0.0 sec)
        Auxbasis Hermite Density:
        P|s>                     ...  0.000
        P|p>                     ...  0.000
        P|d>                     ...  0.000
        P|f>                     ...  0.000
        P|g>                     ...  0.000
        Building the Coulomb matrix: 
        J|ss>                          ... done (  0.2 sec) ndone=  2100339 nskipped1=   101232 nskipped2=    69753
        J|ps>                          ... done (  0.5 sec) ndone=  2052941 nskipped1=    83180 nskipped2=    68295
        J|pp>                          ... done (  0.2 sec) ndone=   546981 nskipped1=    12758 nskipped2=    14265
        J|ds>                          ... done (  0.1 sec) ndone=   424840 nskipped1=    17886 nskipped2=    15944
        J|dp>                          ... done (  0.1 sec) ndone=   210951 nskipped1=     7878 nskipped2=     2361
        J|dd>                          ... done (  0.1 sec) ndone=    23133 nskipped1=      995 nskipped2=       80
        Coulomb matrix built in   1.2 sec

        Total time for Split-RI-J                ...    2.887 sec
          (0) Prelude                            ...    0.000 sec
          (1) Hermite density                    ...    0.000 sec
          (2) Aux basis density                  ...    0.000 sec (inner=  0.0)
          (3) Linear equation solution           ...    0.000 sec
          (4) J-Matrix construction              ...    1.187 sec (inner=  1.2)
        ---------------------------------------------------------

                         ----------------------------
                         !        ITERATION     1   !
                         ----------------------------
   Total Energy        :    -498.150632234533 Eh
   Energy Change       :      -0.115810227473 Eh
   MAX-DP              :       0.044965194531
   RMS-DP              :       0.001415000191
   Actual Damping      :       0.7000
   Actual Level Shift  :       0.2500 Eh
   Int. Num. El.       :    87.99988425 (UP=   43.99994213 DN=   43.99994213)
   Exchange            :   -55.99853829
   Correlation         :    -3.47466069

==>> SHARK/AuxDens: NDens=1 Thresh =     2.500000e-11 TCut=    2.500000e-12 Lmax=2 LmaxAux=4
    -> Making Hermite density - ok     0.013 sec
    -> Making Aux-basis density - (lmax=2)
    -> L=0 0:    0.307 sec done=    420397 ( 88.8%) skipped=     53220 
    -> L=1 0:    0.601 sec done=    477974 ( 87.0%) skipped=     71454 
    -> L=1 1:    0.292 sec done=    141338 ( 85.9%) skipped=     23162 
    -> L=2 0:    0.197 sec done=    141458 ( 84.8%) skipped=     25288 
    -> L=2 1:    0.198 sec done=     81582 ( 85.0%) skipped=     14418 
    -> L=2 2:    0.092 sec done=     12750 ( 82.3%) skipped=      2750 
    -> Aux basis density formed in    1.7 sec
    -> Solving linear equations - ok (   0.0 sec)
        Auxbasis Hermite Density:
        P|s>                     ...  0.000
        P|p>                     ...  0.000
        P|d>                     ...  0.000
        P|f>                     ...  0.000
        P|g>                     ...  0.000
        Building the Coulomb matrix: 
        J|ss>                          ... done (  0.3 sec) ndone=  2092420 nskipped1=   106683 nskipped2=    67239
        J|ps>                          ... done (  0.5 sec) ndone=  2046715 nskipped1=    87542 nskipped2=    65689
        J|pp>                          ... done (  0.2 sec) ndone=   545696 nskipped1=    13497 nskipped2=    14132
        J|ds>                          ... done (  0.2 sec) ndone=   422977 nskipped1=    19592 nskipped2=    14332
        J|dp>                          ... done (  0.1 sec) ndone=   210107 nskipped1=     8335 nskipped2=     2260
        J|dd>                          ... done (  0.0 sec) ndone=    23115 nskipped1=     1008 nskipped2=       76
        Coulomb matrix built in   1.3 sec

        Total time for Split-RI-J                ...    3.020 sec
          (0) Prelude                            ...    0.000 sec
          (1) Hermite density                    ...    0.000 sec
          (2) Aux basis density                  ...    0.000 sec (inner=  0.0)
          (3) Linear equation solution           ...    0.000 sec
          (4) J-Matrix construction              ...    1.309 sec (inner=  1.3)
        ---------------------------------------------------------
                               ***Turning on DIIS***

                         ----------------------------
                         !        ITERATION     2   !
                         ----------------------------
   Total Energy        :    -498.201102275402 Eh
   Energy Change       :      -0.050470040868 Eh
   MAX-DP              :       0.067014539871
   RMS-DP              :       0.002516613286
   Actual Damping      :       0.0000
   Actual Level Shift  :       0.2500 Eh
   Int. Num. El.       :    87.99987361 (UP=   43.99993680 DN=   43.99993680)
   Exchange            :   -55.74962770
   Correlation         :    -3.46411294
   DIIS-Error          :       0.027998803547

==>> SHARK/AuxDens: NDens=1 Thresh =     2.500000e-11 TCut=    2.500000e-12 Lmax=2 LmaxAux=4
    -> Making Hermite density - ok     0.083 sec
    -> Making Aux-basis density - (lmax=2)
    -> L=0 0:    0.311 sec done=    424267 ( 89.6%) skipped=     49350 
    -> L=1 0:    0.610 sec done=    482807 ( 87.9%) skipped=     66621 
    -> L=1 1:    0.374 sec done=    142245 ( 86.5%) skipped=     22255 
    -> L=2 0:    0.209 sec done=    144119 ( 86.4%) skipped=     22627 
    -> L=2 1:    0.194 sec done=     82526 ( 86.0%) skipped=     13474 
    -> L=2 2:    0.010 sec done=     12808 ( 82.6%) skipped=      2692 
    -> Aux basis density formed in    1.7 sec
    -> Solving linear equations - ok (   0.1 sec)
        Auxbasis Hermite Density:
        P|s>                     ...  0.000
        P|p>                     ...  0.000
        P|d>                     ...  0.000
        P|f>                     ...  0.000
        P|g>                     ...  0.000
        Building the Coulomb matrix: 
        J|ss>                          ... done (  0.4 sec) ndone=  2100649 nskipped1=    97547 nskipped2=    68083
        J|ps>                          ... done (  0.5 sec) ndone=  2052958 nskipped1=    80327 nskipped2=    66570
        J|pp>                          ... done (  0.3 sec) ndone=   547002 nskipped1=    12185 nskipped2=    14041
        J|ds>                          ... done (  0.1 sec) ndone=   424704 nskipped1=    17206 nskipped2=    15114
        J|dp>                          ... done (  0.2 sec) ndone=   210850 nskipped1=     7615 nskipped2=     2237
        J|dd>                          ... done (  0.0 sec) ndone=    23137 nskipped1=      965 nskipped2=       76
        Coulomb matrix built in   1.5 sec

        Total time for Split-RI-J                ...    3.387 sec
          (0) Prelude                            ...    0.000 sec
          (1) Hermite density                    ...    0.000 sec
          (2) Aux basis density                  ...    0.000 sec (inner=  0.0)
          (3) Linear equation solution           ...    0.000 sec
          (4) J-Matrix construction              ...    1.504 sec (inner=  1.5)
        ---------------------------------------------------------

                         ----------------------------
                         !        ITERATION     3   !
                         ----------------------------
   Total Energy        :    -498.275704044525 Eh
   Energy Change       :      -0.074601769124 Eh
   MAX-DP              :       0.031143160314
   RMS-DP              :       0.000938648354
   Actual Damping      :       0.0000
   Actual Level Shift  :       0.2500 Eh
   Int. Num. El.       :    87.99985354 (UP=   43.99992677 DN=   43.99992677)
   Exchange            :   -55.35315008
   Correlation         :    -3.44710587
   DIIS-Error          :       0.038815119214
   DIIS coefficients:
      0.53463   0.46537

==>> SHARK/AuxDens: NDens=1 Thresh =     2.500000e-11 TCut=    2.500000e-12 Lmax=2 LmaxAux=4
    -> Making Hermite density - ok     0.014 sec
    -> Making Aux-basis density - (lmax=2)
    -> L=0 0:    0.496 sec done=    416460 ( 87.9%) skipped=     57157 
    -> L=1 0:    0.799 sec done=    475299 ( 86.5%) skipped=     74129 
    -> L=1 1:    0.398 sec done=    141111 ( 85.8%) skipped=     23389 
    -> L=2 0:    0.288 sec done=    139585 ( 83.7%) skipped=     27161 
    -> L=2 1:    0.207 sec done=     81150 ( 84.5%) skipped=     14850 
    -> L=2 2:    0.091 sec done=     12729 ( 82.1%) skipped=      2771 
    -> Aux basis density formed in    2.3 sec
    -> Solving linear equations - ok (   0.0 sec)
        Auxbasis Hermite Density:
        P|s>                     ...  0.000
        P|p>                     ...  0.000
        P|d>                     ...  0.000
        P|f>                     ...  0.000
        P|g>                     ...  0.000
        Building the Coulomb matrix: 
        J|ss>                          ... done (  0.5 sec) ndone=  2085527 nskipped1=   115547 nskipped2=    67566
        J|ps>                          ... done (  0.6 sec) ndone=  2041188 nskipped1=    94668 nskipped2=    65829
        J|pp>                          ... done (  0.2 sec) ndone=   544626 nskipped1=    14770 nskipped2=    14222
        J|ds>                          ... done (  0.1 sec) ndone=   421683 nskipped1=    21636 nskipped2=    14264
        J|dp>                          ... done (  0.2 sec) ndone=   209638 nskipped1=     8964 nskipped2=     2290
        J|dd>                          ... done (  0.0 sec) ndone=    23052 nskipped1=     1073 nskipped2=       78
        Coulomb matrix built in   1.6 sec

        Total time for Split-RI-J                ...    3.907 sec
          (0) Prelude                            ...    0.000 sec
          (1) Hermite density                    ...    0.000 sec
          (2) Aux basis density                  ...    0.000 sec (inner=  0.0)
          (3) Linear equation solution           ...    0.000 sec
          (4) J-Matrix construction              ...    1.602 sec (inner=  1.6)
        ---------------------------------------------------------

                         ----------------------------
                         !        ITERATION     4   !
                         ----------------------------
   Total Energy        :    -498.293451169449 Eh
   Energy Change       :      -0.017747124923 Eh
   MAX-DP              :       0.007681059020
   RMS-DP              :       0.000248165690
   Actual Damping      :       0.0000
   Actual Level Shift  :       0.2500 Eh
   Int. Num. El.       :    87.99985871 (UP=   43.99992935 DN=   43.99992935)
   Exchange            :   -55.51091727
   Correlation         :    -3.45467787
   DIIS-Error          :       0.007978993004
   DIIS coefficients:
      0.19192   0.03271   0.77537

==>> SHARK/AuxDens: NDens=1 Thresh =     2.500000e-11 TCut=    2.500000e-12 Lmax=2 LmaxAux=4
    -> Making Hermite density - ok     0.013 sec
    -> Making Aux-basis density - (lmax=2)
    -> L=0 0:    0.501 sec done=    407629 ( 86.1%) skipped=     65988 
    -> L=1 0:    0.903 sec done=    463147 ( 84.3%) skipped=     86281 
    -> L=1 1:    0.393 sec done=    138110 ( 84.0%) skipped=     26390 
    -> L=2 0:    0.296 sec done=    137243 ( 82.3%) skipped=     29503 
    -> L=2 1:    0.293 sec done=     77903 ( 81.1%) skipped=     18097 
    -> L=2 2:    0.010 sec done=     12562 ( 81.0%) skipped=      2938 
    -> Aux basis density formed in    2.4 sec
    -> Solving linear equations - ok (   0.1 sec)
        Auxbasis Hermite Density:
        P|s>                     ...  0.000
        P|p>                     ...  0.000
        P|d>                     ...  0.000
        P|f>                     ...  0.000
        P|g>                     ...  0.000
        Building the Coulomb matrix: 
        J|ss>                          ... done (  0.4 sec) ndone=  2032310 nskipped1=   151742 nskipped2=    54785
        J|ps>                          ... done (  0.8 sec) ndone=  2000635 nskipped1=   123222 nskipped2=    54765
        J|pp>                          ... done (  0.5 sec) ndone=   535682 nskipped1=    20078 nskipped2=    13434
        J|ds>                          ... done (  0.4 sec) ndone=   412294 nskipped1=    28544 nskipped2=    11359
        J|dp>                          ... done (  0.3 sec) ndone=   206184 nskipped1=    11004 nskipped2=     2067
        J|dd>                          ... done (  0.0 sec) ndone=    22542 nskipped1=     1385 nskipped2=       54
        Coulomb matrix built in   2.4 sec

        Total time for Split-RI-J                ...    4.914 sec
          (0) Prelude                            ...    0.000 sec
          (1) Hermite density                    ...    0.000 sec
          (2) Aux basis density                  ...    0.000 sec (inner=  0.0)
          (3) Linear equation solution           ...    0.000 sec
          (4) J-Matrix construction              ...    2.412 sec (inner=  2.4)
        ---------------------------------------------------------

                         ----------------------------
                         !        ITERATION     5   !
                         ----------------------------
   Total Energy        :    -498.294191317391 Eh
   Energy Change       :      -0.000740147942 Eh
   MAX-DP              :       0.004486615345
   RMS-DP              :       0.000103413266
   Actual Damping      :       0.0000
   Actual Level Shift  :       0.2500 Eh
   Int. Num. El.       :    87.99985994 (UP=   43.99992997 DN=   43.99992997)
   Exchange            :   -55.53559844
   Correlation         :    -3.45590312
   DIIS-Error          :       0.003697008974
   DIIS coefficients:
      0.04942  -0.02084   0.16874   0.80268

==>> SHARK/AuxDens: NDens=1 Thresh =     2.500000e-11 TCut=    2.500000e-12 Lmax=2 LmaxAux=4
    -> Making Hermite density - ok     0.102 sec
    -> Making Aux-basis density - (lmax=2)
    -> L=0 0:    0.498 sec done=    396314 ( 83.7%) skipped=     77303 
    -> L=1 0:    0.804 sec done=    451656 ( 82.2%) skipped=     97772 
    -> L=1 1:    0.301 sec done=    135468 ( 82.4%) skipped=     29032 
    -> L=2 0:    0.206 sec done=    133066 ( 79.8%) skipped=     33680 
    -> L=2 1:    0.286 sec done=     73088 ( 76.1%) skipped=     22912 
    -> L=2 2:    0.011 sec done=     12450 ( 80.3%) skipped=      3050 
    -> Aux basis density formed in    2.1 sec
    -> Solving linear equations - ok (   0.1 sec)
        Auxbasis Hermite Density:
        P|s>                     ... -0.000
        P|p>                     ... -0.000
        P|d>                     ... -0.000
        P|f>                     ... -0.000
        P|g>                     ... -0.000
        Building the Coulomb matrix: 
        J|ss>                          ... done (  0.3 sec) ndone=  1975894 nskipped1=   193349 nskipped2=    44081
        J|ps>                          ... done (  0.6 sec) ndone=  1951723 nskipped1=   158331 nskipped2=    45672
        J|pp>                          ... done (  0.2 sec) ndone=   526340 nskipped1=    26374 nskipped2=    12460
        J|ds>                          ... done (  0.3 sec) ndone=   399253 nskipped1=    37294 nskipped2=     9610
        J|dp>                          ... done (  0.1 sec) ndone=   202693 nskipped1=    13233 nskipped2=     1956
        J|dd>                          ... done (  0.1 sec) ndone=    21526 nskipped1=     1974 nskipped2=       20
        Coulomb matrix built in   1.6 sec

        Total time for Split-RI-J                ...    3.901 sec
          (0) Prelude                            ...    0.000 sec
          (1) Hermite density                    ...    0.000 sec
          (2) Aux basis density                  ...    0.000 sec (inner=  0.0)
          (3) Linear equation solution           ...    0.000 sec
          (4) J-Matrix construction              ...    1.600 sec (inner=  1.6)
        ---------------------------------------------------------
                      *** Initiating the SOSCF procedure ***
                           *** Shutting down DIIS ***
                      *** Re-Reading the Fockian *** 
                      *** Removing any level shift *** 

                         ----------------------------
                         !        ITERATION     6   !
                         ----------------------------
   Total Energy        :    -498.294262267843 Eh
   Energy Change       :      -0.000070950452 Eh
   MAX-DP              :       0.001736231599
   RMS-DP              :       0.000051411143
   Orbital gradient    :       0.000180088752
   Orbital Rotation    :       0.000180088752
   Actual Damping      :       0.0000
   Int. Num. El.       :    87.99986038 (UP=   43.99993019 DN=   43.99993019)
   Exchange            :   -55.54428790
   Correlation         :    -3.45622050

               *** Restarting incremental Fock matrix formation ***
==>> SHARK/AuxDens: NDens=1 Thresh =     2.500000e-11 TCut=    2.500000e-12 Lmax=2 LmaxAux=4
    -> Making Hermite density - ok     0.095 sec
    -> Making Aux-basis density - (lmax=2)
    -> L=0 0:    0.316 sec done=    439381 ( 92.8%) skipped=     34236 
    -> L=1 0:    0.783 sec done=    499316 ( 90.9%) skipped=     50112 
    -> L=1 1:    0.399 sec done=    147016 ( 89.4%) skipped=     17484 
    -> L=2 0:    0.221 sec done=    151265 ( 90.7%) skipped=     15481 
    -> L=2 1:    0.196 sec done=     85001 ( 88.5%) skipped=     10999 
    -> L=2 2:    0.093 sec done=     13931 ( 89.9%) skipped=      1569 
    -> Aux basis density formed in    2.0 sec
    -> Solving linear equations - ok (   0.1 sec)
        Auxbasis Hermite Density:
        P|s>                     ...  0.000
        P|p>                     ...  0.000
        P|d>                     ...  0.000
        P|f>                     ...  0.000
        P|g>                     ...  0.000
        Building the Coulomb matrix: 
        J|ss>                          ... done (  0.5 sec) ndone=  2153164 nskipped1=    58302 nskipped2=   102633
        J|ps>                          ... done (  0.6 sec) ndone=  2090688 nskipped1=    49613 nskipped2=    98775
        J|pp>                          ... done (  0.2 sec) ndone=   555844 nskipped1=     6713 nskipped2=    17185
        J|ds>                          ... done (  0.3 sec) ndone=   435892 nskipped1=     7723 nskipped2=    23879
        J|dp>                          ... done (  0.1 sec) ndone=   216956 nskipped1=     3839 nskipped2=     4200
        J|dd>                          ... done (  0.1 sec) ndone=    23693 nskipped1=      565 nskipped2=      405
        Coulomb matrix built in   1.8 sec

        Total time for Split-RI-J                ...    3.996 sec
          (0) Prelude                            ...    0.000 sec
          (1) Hermite density                    ...    0.000 sec
          (2) Aux basis density                  ...    0.000 sec (inner=  0.0)
          (3) Linear equation solution           ...    0.000 sec
          (4) J-Matrix construction              ...    1.801 sec (inner=  1.8)
        ---------------------------------------------------------

                         ----------------------------
                         !        ITERATION     7   !
                         ----------------------------
   Total Energy        :    -498.294229872727 Eh
   Energy Change       :       0.000032395116 Eh
   MAX-DP              :       0.000627846742
   RMS-DP              :       0.000017789204
   Orbital gradient    :       0.000125886828
   Orbital Rotation    :       0.000489228973
   Actual Damping      :       0.0000
   Int. Num. El.       :    87.99986055 (UP=   43.99993028 DN=   43.99993028)
   Exchange            :   -55.54644136
   Correlation         :    -3.45635257

==>> SHARK/AuxDens: NDens=1 Thresh =     2.500000e-11 TCut=    2.500000e-12 Lmax=2 LmaxAux=4
    -> Making Hermite density - ok     0.104 sec
    -> Making Aux-basis density - (lmax=2)
    -> L=0 0:    0.811 sec done=    375960 ( 79.4%) skipped=     97657 
    -> L=1 0:    1.383 sec done=    434655 ( 79.1%) skipped=    114773 
    -> L=1 1:    0.600 sec done=    131717 ( 80.1%) skipped=     32783 
    -> L=2 0:    0.226 sec done=    123586 ( 74.1%) skipped=     43160 
    -> L=2 1:    0.380 sec done=     70575 ( 73.5%) skipped=     25425 
    -> L=2 2:    0.096 sec done=     12267 ( 79.1%) skipped=      3233 
    -> Aux basis density formed in    3.5 sec
    -> Solving linear equations - ok (   0.0 sec)
        Auxbasis Hermite Density:
        P|s>                     ...  0.000
        P|p>                     ...  0.000
        P|d>                     ...  0.000
        P|f>                     ...  0.000
        P|g>                     ...  0.000
        Building the Coulomb matrix: 
        J|ss>                          ... done (  0.9 sec) ndone=  1914946 nskipped1=   242932 nskipped2=    35710
        J|ps>                          ... done (  1.4 sec) ndone=  1900372 nskipped1=   198576 nskipped2=    39924
        J|pp>                          ... done (  0.2 sec) ndone=   517913 nskipped1=    33137 nskipped2=    11767
        J|ds>                          ... done (  0.1 sec) ndone=   384938 nskipped1=    48772 nskipped2=     8486
        J|dp>                          ... done (  0.2 sec) ndone=   198935 nskipped1=    16126 nskipped2=     1800
        J|dd>                          ... done (  0.1 sec) ndone=    20767 nskipped1=     2499 nskipped2=        3
        Coulomb matrix built in   2.9 sec

        Total time for Split-RI-J                ...    6.498 sec
          (0) Prelude                            ...    0.000 sec
          (1) Hermite density                    ...    0.000 sec
          (2) Aux basis density                  ...    0.000 sec (inner=  0.0)
          (3) Linear equation solution           ...    0.000 sec
          (4) J-Matrix construction              ...    2.882 sec (inner=  2.9)
        ---------------------------------------------------------

                         ----------------------------
                         !        ITERATION     8   !
                         ----------------------------
   Total Energy        :    -498.294228999113 Eh
   Energy Change       :       0.000000873614 Eh
   MAX-DP              :       0.000445060342
   RMS-DP              :       0.000009573605
   Orbital gradient    :       0.000221037822
   Orbital Rotation    :       0.000339827286
   Actual Damping      :       0.0000
   Int. Num. El.       :    87.99986046 (UP=   43.99993023 DN=   43.99993023)
   Exchange            :   -55.54610686
   Correlation         :    -3.45632074

==>> SHARK/AuxDens: NDens=1 Thresh =     2.500000e-11 TCut=    2.500000e-12 Lmax=2 LmaxAux=4
    -> Making Hermite density - ok     0.102 sec
    -> Making Aux-basis density - (lmax=2)
    -> L=0 0:    0.310 sec done=    368045 ( 77.7%) skipped=    105572 
    -> L=1 0:    0.586 sec done=    423819 ( 77.1%) skipped=    125609 
    -> L=1 1:    0.289 sec done=    128373 ( 78.0%) skipped=     36127 
    -> L=2 0:    0.115 sec done=    119585 ( 71.7%) skipped=     47161 
    -> L=2 1:    0.187 sec done=     68615 ( 71.5%) skipped=     27385 
    -> L=2 2:    0.010 sec done=     12017 ( 77.5%) skipped=      3483 
    -> Aux basis density formed in    1.5 sec
    -> Solving linear equations - ok (   0.0 sec)
        Auxbasis Hermite Density:
        P|s>                     ...  0.000
        P|p>                     ...  0.000
        P|d>                     ...  0.000
        P|f>                     ...  0.000
        P|g>                     ...  0.000
        Building the Coulomb matrix: 
        J|ss>                          ... done (  0.2 sec) ndone=  1870593 nskipped1=   273278 nskipped2=    30045
        J|ps>                          ... done (  0.4 sec) ndone=  1867979 nskipped1=   220829 nskipped2=    36518
        J|pp>                          ... done (  0.2 sec) ndone=   511723 nskipped1=    37645 nskipped2=    10832
        J|ds>                          ... done (  0.1 sec) ndone=   373386 nskipped1=    56540 nskipped2=     7491
        J|dp>                          ... done (  0.2 sec) ndone=   195585 nskipped1=    18258 nskipped2=     1594
        J|dd>                          ... done (  0.0 sec) ndone=    20514 nskipped1=     2659 nskipped2=        2
        Coulomb matrix built in   1.1 sec

        Total time for Split-RI-J                ...    2.796 sec
          (0) Prelude                            ...    0.000 sec
          (1) Hermite density                    ...    0.000 sec
          (2) Aux basis density                  ...    0.000 sec (inner=  0.0)
          (3) Linear equation solution           ...    0.000 sec
          (4) J-Matrix construction              ...    1.106 sec (inner=  1.1)
        ---------------------------------------------------------

                         ----------------------------
                         !        ITERATION     9   !
                         ----------------------------
   Total Energy        :    -498.294230715152 Eh
   Energy Change       :      -0.000001716038 Eh
   MAX-DP              :       0.000107267628
   RMS-DP              :       0.000003094907
   Orbital gradient    :       0.000041651191
   Orbital Rotation    :       0.000131885371
   Actual Damping      :       0.0000
   Int. Num. El.       :    87.99986051 (UP=   43.99993025 DN=   43.99993025)
   Exchange            :   -55.54625172
   Correlation         :    -3.45633885

==>> SHARK/AuxDens: NDens=1 Thresh =     2.500000e-11 TCut=    2.500000e-12 Lmax=2 LmaxAux=4
    -> Making Hermite density - ok     0.094 sec
    -> Making Aux-basis density - (lmax=2)
    -> L=0 0:    0.408 sec done=    356138 ( 75.2%) skipped=    117479 
    -> L=1 0:    0.496 sec done=    408696 ( 74.4%) skipped=    140732 
    -> L=1 1:    0.214 sec done=    122907 ( 74.7%) skipped=     41593 
    -> L=2 0:    0.192 sec done=    114576 ( 68.7%) skipped=     52170 
[...]
15 H  px              0.6       1.1       0.5       1.1       0.5       0.0
15 H  py              0.3       0.2       0.7       1.3       0.4       0.0
16 H  s               0.3       0.2       0.0       0.8       1.5       0.1
16 H  pz              0.0       0.0       0.0       0.3       0.2       0.0
16 H  px              0.0       0.1       0.1       0.0       0.5       0.1
16 H  py              0.4       0.2       0.1       0.7       1.5       0.1
17 H  s               0.0       0.4       0.8       2.2       0.7       0.0
17 H  pz              0.1       0.3       1.6       1.3       0.5       0.0
17 H  px              0.0       0.3       0.0       0.2       0.0       0.0
17 H  py              0.0       0.0       0.1       1.6       0.4       0.0
18 H  s               0.3       0.2       2.5       0.7       0.1       0.0
18 H  pz              0.1       0.0       1.3       0.2       0.0       0.0
18 H  py              0.4       0.2       2.1       0.5       0.1       0.0
19 H  s               0.1       0.0       1.0       1.8       0.3       0.0
19 H  pz              0.0       0.0       0.0       0.5       0.0       0.0
19 H  px              0.1       0.1       0.9       1.7       0.3       0.0
19 H  py              0.0       0.1       0.3       0.1       0.0       0.0
20 H  s               0.1       0.1       4.5       0.1       0.0       0.0
20 H  pz              0.0       0.0       5.0       0.0       0.1       0.1
20 H  px              0.1       0.1       0.3       0.1       0.0       0.0
20 H  py              0.0       0.0       1.2       0.1       0.0       0.0
21 H  s               0.6       0.1       2.4       1.0       0.0       0.1
21 H  px              0.5       0.1       1.6       0.6       0.0       0.1
21 H  py              0.4       0.0       1.3       0.6       0.0       0.1
22 H  s               1.2       0.3       0.0       0.4       1.2       0.6
22 H  pz              2.3       0.4       0.0       0.6       1.5       0.7
22 H  px              0.1       0.1       0.0       0.0       0.0       0.7
22 H  py              0.4       0.2       0.0       0.1       0.1       0.1
23 H  s               0.9       0.8       0.0       0.2       0.8       0.1
23 H  pz              0.2       0.0       0.0       0.1       0.4       0.8
23 H  px              0.8       1.1       0.1       0.1       0.4       0.1
23 H  py              0.5       0.4       0.0       0.1       0.4       0.0
24 H  s               0.7       0.0       0.0       0.3       1.3       2.1
24 H  pz              1.0       0.0       0.0       0.4       1.7       2.7
24 H  px              0.4       0.1       0.0       0.0       0.0       0.2
24 H  py              0.6       0.0       0.0       0.0       0.1       0.1
25 H  s               0.4       1.2       0.0       0.0       0.1       2.5
25 H  pz              0.7       0.1       0.1       0.2       0.6       2.0
25 H  px              0.2       2.4       0.0       0.0       0.0       1.6
25 H  py              0.0       1.2       0.1       0.0       0.1       0.1

                    234       235       236       237   
                   3.15989   3.21449   3.33280   3.61107
                   0.00000   0.00000   0.00000   0.00000
                  --------  --------  --------  --------
 0 C  s               0.4       0.0       0.0       0.0
 0 C  pz              0.6       0.0       0.0       0.0
 0 C  px              1.3       0.0       0.0       0.0
 0 C  py              0.7       0.3       0.0       0.0
 0 C  dz2             0.2       2.4       0.2       0.0
 0 C  dxz             2.4       0.0       0.0       0.0
 0 C  dyz             2.1       0.0       0.0       0.0
 0 C  dx2y2           0.1       0.0       0.0       0.0
 0 C  dxy             5.9       0.0       0.1       0.0
 1 N  pz              0.5       0.8       0.1       0.0
 1 N  px              3.4       0.0       0.0       0.0
 1 N  py              0.7       2.5       0.2       0.0
 1 N  dz2             1.3       0.0       0.0       0.0
 1 N  dxz             3.4      11.1       0.5       0.0
 1 N  dyz            19.1       5.2       0.1       0.0
 1 N  dx2y2           2.4       5.7       0.2       0.1
 1 N  dxy            11.1      16.8       3.2       0.0
 2 C  s               0.2       0.2       0.1       0.0
 2 C  pz              0.6       0.2       0.0       0.0
 2 C  px              1.0       0.5       0.1       0.0
 2 C  py              0.1       1.3       0.1       0.0
 2 C  dz2             1.2       0.0       0.0       0.0
 2 C  dxz             0.4       1.9       0.2       0.0
 2 C  dyz             3.7       0.2       0.0       0.0
 2 C  dx2y2           0.5       2.2       0.2       0.0
 2 C  dxy             1.1       4.1       0.3       0.0
 3 C  px              0.1       0.1       0.0       0.0
 3 C  py              0.0       0.2       0.0       0.0
 3 C  dxz             0.1       1.0       0.1       0.0
 3 C  dyz             0.0       0.8       0.1       0.0
 3 C  dx2y2           0.0       0.6       0.0       0.0
 3 C  dxy             0.0       0.2       0.0       0.0
 4 C  px              0.1       0.4       0.0       0.0
 4 C  py              0.2       0.1       0.0       0.0
 4 C  dz2             0.0       1.6       0.1       0.1
 4 C  dxz             0.7       0.0       0.3       0.0
 4 C  dyz             0.1       0.6       0.1       0.0
 4 C  dx2y2           0.0       0.3       0.1       0.0
 4 C  dxy             0.1       0.2       0.0       0.0
 5 C  s               0.1       0.4       0.0       0.1
 5 C  pz              0.6       0.2       0.0       0.1
 5 C  px              0.7       0.6       0.0       0.1
 5 C  py              0.5       1.9       0.1       0.1
 5 C  dz2             2.5       0.0       0.8       0.1
 5 C  dxz             0.4       2.0       0.0       0.5
 5 C  dyz             4.1       7.1       1.0       0.2
 5 C  dx2y2           0.0       2.2       0.6       0.0
 5 C  dxy             1.0       1.4       0.8       0.2
 6 H  s               2.1       0.8       0.0       0.0
 6 H  pz              0.5       0.5       0.0       0.0
 6 H  px              0.5       0.0       0.0       0.0
 6 H  py              2.4       0.6       0.0       0.0
 7 C  s               0.3       0.0       0.0       0.2
 7 C  pz              0.0       0.0       0.3       0.0
 7 C  px              0.1       0.0       0.2       0.1
 7 C  dz2             0.0       0.0       3.9       1.5
 7 C  dxz             1.0       0.1       0.2       6.1
 7 C  dyz             0.8       0.4       1.3       1.0
 7 C  dx2y2           0.0       0.5       0.7       0.1
 7 C  dxy             0.2       0.1       0.7       1.0
 8 C  s               0.0       0.2       0.7       0.1
 8 C  pz              0.0       0.1       0.3       0.3
 8 C  px              0.1       0.1       1.5       0.0
 8 C  py              0.0       0.1       0.9       0.1
 8 C  dz2             0.0       0.0       0.5       7.6
 8 C  dxz             0.3       0.5       7.6       0.0
 8 C  dyz             0.2       0.1       2.6       0.7
 8 C  dx2y2           0.1       0.1       0.2       1.1
 8 C  dxy             0.0       0.1       1.2       3.6
 9 N  s               0.3       0.0       0.1       0.8
 9 N  pz              0.1       0.4       2.1       0.0
 9 N  px              0.0       0.1       0.5       0.1
 9 N  py              0.0       0.1       0.9       0.0
 9 N  dz2             2.2       3.6      17.1       2.6
 9 N  dxz             0.1       0.7       7.5       7.5
 9 N  dyz             1.0       0.1       0.0       6.9
 9 N  dx2y2           0.1       0.1       0.5       1.1
 9 N  dxy             0.0       1.3       9.3       0.1
10 C  s               0.1       0.1       0.4       0.0
10 C  pz              0.3       0.5       2.0       0.1
10 C  px              0.0       0.0       0.1       0.2
10 C  py              0.0       0.0       0.1       0.2
10 C  dz2             0.5       1.4       5.9       3.9
10 C  dxz             0.5       0.0       0.7       8.5
10 C  dyz             0.0       0.2       2.4       1.0
10 C  dx2y2           0.0       0.1       1.1       0.1
10 C  dxy             0.1       0.3       1.2       2.1
11 C  pz              0.0       0.0       0.0       0.6
11 C  px              0.0       0.0       0.4       0.0
11 C  py              0.0       0.0       0.1       0.0
11 C  dz2             0.0       0.0       0.4       9.3
11 C  dxz             0.0       0.3       3.8       0.0
11 C  dyz             0.0       0.0       0.9       1.5
11 C  dx2y2           0.0       0.0       0.2       1.0
11 C  dxy             0.1       0.0       0.4       2.6
12 C  s               0.1       0.1       0.0       0.0
12 C  pz              0.0       0.0       0.6       0.1
12 C  px              0.0       0.0       0.1       0.3
12 C  py              0.0       0.0       0.2       0.1
12 C  dz2             0.1       0.0       2.2       1.1
12 C  dxz             0.9       0.3       0.8       6.5
12 C  dyz             0.1       0.1       0.0       3.7
12 C  dx2y2           0.3       0.0       0.1       1.5
12 C  dxy             0.0       0.0       0.8       0.2
13 H  s               0.1       0.1       0.0       0.0
13 H  px              0.2       0.1       0.0       0.0
13 H  py              0.2       0.4       0.0       0.0
14 H  s               0.1       0.1       0.0       0.0
14 H  pz              0.2       0.0       0.0       0.0
14 H  py              0.1       0.1       0.0       0.0
15 H  s               0.3       0.2       0.1       0.0
15 H  pz              0.3       0.2       0.0       0.0
15 H  px              0.6       0.3       0.1       0.0
16 H  s               0.1       1.2       0.0       0.0
16 H  py              0.1       1.6       0.1       0.0
17 H  s               1.2       0.0       0.0       0.0
17 H  pz              1.2       0.0       0.0       0.0
17 H  px              0.7       0.0       0.0       0.0
18 H  s               0.0       0.3       0.0       0.0
18 H  pz              0.0       0.1       0.0       0.0
18 H  py              0.0       0.3       0.0       0.0
19 H  s               0.0       0.3       0.0       0.0
19 H  px              0.1       0.3       0.0       0.0
20 H  s               0.2       0.3       0.0       0.0
20 H  pz              0.3       0.2       0.0       0.0
20 H  py              0.0       0.2       0.0       0.0
21 H  s               0.2       0.4       0.0       0.0
21 H  px              0.2       0.5       0.0       0.0
22 H  s               0.0       0.0       0.1       1.1
22 H  pz              0.0       0.0       0.1       0.9
22 H  px              0.1       0.1       0.6       0.1
22 H  py              0.1       0.0       0.4       0.0
23 H  s               0.1       0.1       0.1       1.5
23 H  pz              0.0       0.2       1.1       0.2
23 H  px              0.1       0.0       0.1       0.7
23 H  py              0.0       0.0       0.1       0.4
24 H  s               0.0       0.0       0.0       1.8
24 H  pz              0.0       0.0       0.0       1.3
24 H  px              0.0       0.1       0.5       0.0
24 H  py              0.0       0.0       0.2       0.1
25 H  s               0.2       0.0       0.0       1.6
25 H  pz              0.0       0.0       0.2       0.4
25 H  px              0.3       0.1       0.0       0.8
25 H  py              0.1       0.0       0.1       0.1


                      *****************************
                      * MAYER POPULATION ANALYSIS *
                      *****************************

  NA   - Mulliken gross atomic population
  ZA   - Total nuclear charge
  QA   - Mulliken gross atomic charge
  VA   - Mayer's total valence
  BVA  - Mayer's bonded valence
  FA   - Mayer's free valence

  ATOM       NA         ZA         QA         VA         BVA        FA
  0 C      5.8797     6.0000     0.1203     3.9345     3.9345    -0.0000
  1 N      7.3944     7.0000    -0.3944     3.1153     3.1153     0.0000
  2 C      5.8441     6.0000     0.1559     4.0891     4.0891     0.0000
  3 C      5.9999     6.0000     0.0001     4.1253     4.1253     0.0000
  4 C      5.9463     6.0000     0.0537     4.1067     4.1067    -0.0000
  5 C      5.9231     6.0000     0.0769     4.0490     4.0490     0.0000
  6 H      0.9854     1.0000     0.0146     0.9742     0.9742     0.0000
  7 C      6.0541     6.0000    -0.0541     3.8863     3.8863     0.0000
  8 C      5.9803     6.0000     0.0197     3.9943     3.9943    -0.0000
  9 N      7.1476     7.0000    -0.1476     3.1338     3.1338     0.0000
 10 C      5.9791     6.0000     0.0209     3.9983     3.9983    -0.0000
 11 C      6.0055     6.0000    -0.0055     3.8424     3.8424     0.0000
 12 C      5.9768     6.0000     0.0232     3.8974     3.8974    -0.0000
 13 H      0.9803     1.0000     0.0197     0.9892     0.9892     0.0000
 14 H      1.0040     1.0000    -0.0040     0.9873     0.9873     0.0000
 15 H      0.9782     1.0000     0.0218     0.9966     0.9966    -0.0000
 16 H      0.9924     1.0000     0.0076     0.9842     0.9842    -0.0000
 17 H      1.0016     1.0000    -0.0016     0.9753     0.9753    -0.0000
 18 H      0.9945     1.0000     0.0055     0.9746     0.9746    -0.0000
 19 H      0.9960     1.0000     0.0040     0.9757     0.9757    -0.0000
 20 H      0.9873     1.0000     0.0127     0.9778     0.9778    -0.0000
 21 H      0.9918     1.0000     0.0082     0.9771     0.9771    -0.0000
 22 H      1.0011     1.0000    -0.0011     1.0111     1.0111    -0.0000
 23 H      0.9835     1.0000     0.0165     0.9853     0.9853     0.0000
 24 H      0.9871     1.0000     0.0129     0.9829     0.9829     0.0000
 25 H      0.9861     1.0000     0.0139     0.9917     0.9917    -0.0000

  Mayer bond orders larger than 0.100000
B(  0-C ,  1-N ) :   1.0052 B(  0-C , 13-H ) :   0.9722 B(  0-C , 14-H ) :   0.9517 
B(  0-C , 15-H ) :   0.9671 B(  1-N ,  2-C ) :   1.0218 B(  1-N ,  5-C ) :   1.0103 
B(  2-C ,  3-C ) :   1.1008 B(  2-C , 16-H ) :   0.9464 B(  2-C , 17-H ) :   0.9315 
B(  3-C ,  4-C ) :   1.1305 B(  3-C , 18-H ) :   0.9293 B(  3-C , 19-H ) :   0.9285 
B(  4-C ,  5-C ) :   1.1054 B(  4-C , 20-H ) :   0.9141 B(  4-C , 21-H ) :   0.9210 
B(  5-C ,  6-H ) :   0.8844 B(  5-C ,  7-C ) :   0.9612 B(  7-C ,  8-C ) :   1.3654 
B(  7-C , 12-C ) :   1.4366 B(  8-C ,  9-N ) :   1.5363 B(  8-C , 22-H ) :   0.9728 
B(  9-N , 10-C ) :   1.4974 B( 10-C , 11-C ) :   1.4076 B( 10-C , 23-H ) :   0.9716 
B( 11-C , 12-C ) :   1.3753 B( 11-C , 24-H ) :   0.9702 B( 12-C , 25-H ) :   0.9777 


-------
TIMINGS
-------

Total SCF time: 0 days 0 hours 1 min 58 sec 

Total time                  ....     118.080 sec
Sum of individual times     ....     117.498 sec  ( 99.5%)

Fock matrix formation       ....     112.816 sec  ( 95.5%)
  Split-RI-J                ....       5.557 sec  (  4.9% of F)
  Chain of spheres X        ....      89.083 sec  ( 79.0% of F)
  XC integration            ....      10.278 sec  (  9.1% of F)
    Basis function eval.    ....       4.007 sec  ( 39.0% of XC)
    Density eval.           ....       2.786 sec  ( 27.1% of XC)
    XC-Functional eval.     ....       0.507 sec  (  4.9% of XC)
    XC-Potential eval.      ....       2.558 sec  ( 24.9% of XC)
Diagonalization             ....       0.010 sec  (  0.0%)
Density matrix formation    ....       0.006 sec  (  0.0%)
Population analysis         ....       0.122 sec  (  0.1%)
Initial guess               ....       0.013 sec  (  0.0%)
Orbital Transformation      ....       0.000 sec  (  0.0%)
Orbital Orthonormalization  ....       0.008 sec  (  0.0%)
DIIS solution               ....       0.002 sec  (  0.0%)
SOSCF solution              ....       0.030 sec  (  0.0%)
Grid generation             ....       4.500 sec  (  3.8%)

Maximum memory used throughout the entire SCF-calculation: 95.4 MB

-------------------------   --------------------
FINAL SINGLE POINT ENERGY      -498.298484410242
-------------------------   --------------------

                                *** OPTIMIZATION RUN DONE ***

                            ***************************************
                            *     ORCA property calculations      *
                            ***************************************

                                    ---------------------
                                    Active property flags
                                    ---------------------
   (+) Dipole Moment


------------------------------------------------------------------------------
                       ORCA ELECTRIC PROPERTIES CALCULATION
------------------------------------------------------------------------------

Dipole Moment Calculation                       ... on
Quadrupole Moment Calculation                   ... off
Polarizability Calculation                      ... off
GBWName                                         ... Nicotine_DFT.gbw
Electron density                                ... Nicotine_DFT.scfp
SHARK General Contraction Test:  Segmented basis detected
   -> Pre-screening matrix found on disk - Trying to read with NShells=114
   -> Passing Pre-screening matrix on to SHARK ...ok
   -> Leaving CheckPreScreeningMatrix
----------------------
SHARK INTEGRAL PACKAGE
----------------------

Number of atoms                             ...     26
Number of basis functions                   ...    238
Number of shells                            ...    114
Maximum angular momentum                    ...      2
Integral batch strategy                     ... SHARK/LIBINT Hybrid
RI-J (if used) integral strategy            ... SPLIT-RIJ (Revised 2003 algorithm where possible)
Printlevel                                  ...      2
Contraction scheme used                     ... SEGMENTED contraction
Coulomb Range Separation                    ... NOT USED
Exchange Range Separation                   ... NOT USED
Finite Nucleus Model                        ... NOT USED
Auxiliary Coulomb fitting basis             ... AVAILABLE
   # of basis functions in Aux-J            ...    742
   # of shells in Aux-J                     ...    250
   Maximum angular momentum in Aux-J        ...      4
Auxiliary J/K fitting basis                 ... NOT available
Auxiliary Correlation fitting basis         ... NOT available
Auxiliary 'external' fitting basis          ... NOT available
Integral threshold                          ...     2.500000e-11
Primitive cut-off                           ...     2.500000e-12
Primitive pair pre-selection threshold      ...     2.500000e-12

The origin for moment calculation is the CENTER OF MASS  = ( 3.699084, -2.324715  2.905484)

-------------
DIPOLE MOMENT
-------------
                                X             Y             Z
Electronic contribution:     -6.20577      -8.85505       1.84271
Nuclear contribution   :      7.50277       9.51109      -1.00968
                        -----------------------------------------
Total Dipole Moment    :      1.29700       0.65604       0.83303
                        -----------------------------------------
Magnitude (a.u.)       :      1.67527
Magnitude (Debye)      :      4.25820



--------------------
Rotational spectrum 
--------------------
 
Rotational constants in cm-1:     0.074208     0.019697     0.017438 
Rotational constants in MHz :  2224.703390   590.500155   522.776372 

 Dipole components along the rotational axes: 
x,y,z [a.u.] :     0.892918    -1.333731     0.479998 
x,y,z [Debye]:     2.269618    -3.390074     1.220057 

 

Timings for individual modules:

Sum of individual times         ...     4714.734 sec (=  78.579 min)
GTO integral calculation        ...       15.014 sec (=   0.250 min)   0.3 %
SCF iterations                  ...     3573.781 sec (=  59.563 min)  75.8 %
SCF Gradient evaluation         ...     1124.342 sec (=  18.739 min)  23.8 %
Geometry relaxation             ...        1.597 sec (=   0.027 min)   0.0 %
                             ****ORCA TERMINATED NORMALLY****
TOTAL RUN TIME: 0 days 1 hours 18 minutes 39 seconds 530 msec
