
                                 *****************
                                 * O   R   C   A *
                                 *****************

                                            #,                                       
                                            ###                                      
                                            ####                                     
                                            #####                                    
                                            ######                                   
                                           ########,                                 
                                     ,,################,,,,,                         
                               ,,#################################,,                 
                          ,,##########################################,,             
                       ,#########################################, ''#####,          
                    ,#############################################,,   '####,        
                  ,##################################################,,,,####,       
                ,###########''''           ''''###############################       
              ,#####''   ,,,,##########,,,,          '''####'''          '####       
            ,##' ,,,,###########################,,,                        '##       
           ' ,,###''''                  '''############,,,                           
         ,,##''                                '''############,,,,        ,,,,,,###''
      ,#''                                            '''#######################'''  
     '                                                          ''''####''''         
             ,#######,   #######,   ,#######,      ##                                
            ,#'     '#,  ##    ##  ,#'     '#,    #''#        ######   ,####,        
            ##       ##  ##   ,#'  ##            #'  '#       #        #'  '#        
            ##       ##  #######   ##           ,######,      #####,   #    #        
            '#,     ,#'  ##    ##  '#,     ,#' ,#      #,         ##   #,  ,#        
             '#######'   ##     ##  '#######'  #'      '#     #####' # '####'        



                  #######################################################
                  #                        -***-                        #
                  #          Department of theory and spectroscopy      #
                  #    Directorship and core code : Frank Neese         #
                  #        Max Planck Institute fuer Kohlenforschung    #
                  #                Kaiser Wilhelm Platz 1               #
                  #                 D-45470 Muelheim/Ruhr               #
                  #                      Germany                        #
                  #                                                     #
                  #                  All rights reserved                #
                  #                        -***-                        #
                  #######################################################


                         Program Version 5.0.4 -  RELEASE  -


 With contributions from (in alphabetic order):
   Daniel Aravena         : Magnetic Suceptibility
   Michael Atanasov       : Ab Initio Ligand Field Theory (pilot matlab implementation)
   Alexander A. Auer      : GIAO ZORA, VPT2 properties, NMR spectrum
   Ute Becker             : Parallelization
   Giovanni Bistoni       : ED, misc. LED, open-shell LED, HFLD
   Martin Brehm           : Molecular dynamics
   Dmytro Bykov           : SCF Hessian
   Vijay G. Chilkuri      : MRCI spin determinant printing, contributions to CSF-ICE
   Dipayan Datta          : RHF DLPNO-CCSD density
   Achintya Kumar Dutta   : EOM-CC, STEOM-CC
   Dmitry Ganyushin       : Spin-Orbit,Spin-Spin,Magnetic field MRCI
   Miquel Garcia          : C-PCM and meta-GGA Hessian, CC/C-PCM, Gaussian charge scheme
   Yang Guo               : DLPNO-NEVPT2, F12-NEVPT2, CIM, IAO-localization
   Andreas Hansen         : Spin unrestricted coupled pair/coupled cluster methods
   Benjamin Helmich-Paris : MC-RPA, TRAH-SCF, COSX integrals
   Lee Huntington         : MR-EOM, pCC
   Robert Izsak           : Overlap fitted RIJCOSX, COSX-SCS-MP3, EOM
   Marcus Kettner         : VPT2
   Christian Kollmar      : KDIIS, OOCD, Brueckner-CCSD(T), CCSD density, CASPT2, CASPT2-K
   Simone Kossmann        : Meta GGA functionals, TD-DFT gradient, OOMP2, MP2 Hessian
   Martin Krupicka        : Initial AUTO-CI
   Lucas Lang             : DCDCAS
   Marvin Lechner         : AUTO-CI (C++ implementation), FIC-MRCC
   Dagmar Lenk            : GEPOL surface, SMD
   Dimitrios Liakos       : Extrapolation schemes; Compound Job, initial MDCI parallelization
   Dimitrios Manganas     : Further ROCIS development; embedding schemes
   Dimitrios Pantazis     : SARC Basis sets
   Anastasios Papadopoulos: AUTO-CI, single reference methods and gradients
   Taras Petrenko         : DFT Hessian,TD-DFT gradient, ASA, ECA, R-Raman, ABS, FL, XAS/XES, NRVS
   Peter Pinski           : DLPNO-MP2, DLPNO-MP2 Gradient
   Christoph Reimann      : Effective Core Potentials
   Marius Retegan         : Local ZFS, SOC
   Christoph Riplinger    : Optimizer, TS searches, QM/MM, DLPNO-CCSD(T), (RO)-DLPNO pert. Triples
   Tobias Risthaus        : Range-separated hybrids, TD-DFT gradient, RPA, STAB
   Michael Roemelt        : Original ROCIS implementation
   Masaaki Saitow         : Open-shell DLPNO-CCSD energy and density
   Barbara Sandhoefer     : DKH picture change effects
   Avijit Sen             : IP-ROCIS
   Kantharuban Sivalingam : CASSCF convergence, NEVPT2, FIC-MRCI
   Bernardo de Souza      : ESD, SOC TD-DFT
   Georgi Stoychev        : AutoAux, RI-MP2 NMR, DLPNO-MP2 response
   Willem Van den Heuvel  : Paramagnetic NMR
   Boris Wezisla          : Elementary symmetry handling
   Frank Wennmohs         : Technical directorship


 We gratefully acknowledge several colleagues who have allowed us to
 interface, adapt or use parts of their codes:
   Stefan Grimme, W. Hujo, H. Kruse, P. Pracht,  : VdW corrections, initial TS optimization,
                  C. Bannwarth, S. Ehlert          DFT functionals, gCP, sTDA/sTD-DF
   Ed Valeev, F. Pavosevic, A. Kumar             : LibInt (2-el integral package), F12 methods
   Garnet Chan, S. Sharma, J. Yang, R. Olivares  : DMRG
   Ulf Ekstrom                                   : XCFun DFT Library
   Mihaly Kallay                                 : mrcc  (arbitrary order and MRCC methods)
   Jiri Pittner, Ondrej Demel                    : Mk-CCSD
   Frank Weinhold                                : gennbo (NPA and NBO analysis)
   Christopher J. Cramer and Donald G. Truhlar   : smd solvation model
   Lars Goerigk                                  : TD-DFT with DH, B97 family of functionals
   V. Asgeirsson, H. Jonsson                     : NEB implementation
   FAccTs GmbH                                   : IRC, NEB, NEB-TS, DLPNO-Multilevel, CI-OPT
                                                   MM, QMMM, 2- and 3-layer-ONIOM, Crystal-QMMM,
                                                   LR-CPCM, SF, NACMEs, symmetry and pop. for TD-DFT,
                                                   nearIR, NL-DFT gradient (VV10), updates on ESD,
                                                   ML-optimized integration grids
   S Lehtola, MJT Oliveira, MAL Marques          : LibXC Library
   Liviu Ungur et al                             : ANISO software


 Your calculation uses the libint2 library for the computation of 2-el integrals
 For citations please refer to: http://libint.valeyev.net

 Your ORCA version has been built with support for libXC version: 5.1.0
 For citations please refer to: https://tddft.org/programs/libxc/

 This ORCA versions uses:
   CBLAS   interface :  Fast vector & matrix operations
   LAPACKE interface :  Fast linear algebra routines
   SCALAPACK package :  Parallel linear algebra routines
   Shared memory     :  Shared parallel matrices
   BLAS/LAPACK       :  OpenBLAS 0.3.15  USE64BITINT DYNAMIC_ARCH NO_AFFINITY SkylakeX SINGLE_THREADED
        Core in use  :  SkylakeX
   Copyright (c) 2011-2014, The OpenBLAS Project


================================================================================

----- Orbital basis set information -----
Your calculation utilizes the basis: def2-SVP
   F. Weigend and R. Ahlrichs, Phys. Chem. Chem. Phys. 7, 3297 (2005).

----- AuxJ basis set information -----
Your calculation utilizes the auxiliary basis: def2/J
   F. Weigend, Phys. Chem. Chem. Phys. 8, 1057 (2006).

================================================================================
                                        WARNINGS
                       Please study these warnings very carefully!
================================================================================


WARNING: Geometry Optimization
  ===> : Switching off AutoStart
         For restart on a previous wavefunction, please use MOREAD

INFO   : the flag for use of the SHARK integral package has been found!

================================================================================
                                       INPUT FILE
================================================================================
NAME = K2SO4_DFT.inp
|  1> ## avogadro generated ORCA input file 
|  2> # Advanced Mode
|  3> # 
|  4> ! B3LYP OPT def2-SVP NormalPrint defgrid2 NormalSCF 
|  5> 
|  6> ! CPCM
|  7> %cpcm
|  8> epsilon 69.0
|  9> refrac 1.34
| 10> end
| 11> 
| 12> %scf
| 13> 	MaxIter 125
| 14> 	CNVDIIS 1
| 15> 	CNVSOSCF 1 
| 16> end
| 17> 
| 18> * xyz -10 1
| 19>    O        0.94589        0.28295       -0.27855
| 20>    S        2.35329       -0.04652       -0.03314
| 21>    O        3.13555        1.14196       -0.38683
| 22>    O        2.56563       -0.41079        1.37105
| 23>    O        2.76606       -1.20020       -0.83822
| 24>    K        1.27513        2.57149       -1.06637
| 25>    K        3.43120       -2.66461        1.00015
| 26> *
| 27> 
| 28> 
| 29>                          ****END OF INPUT****
================================================================================

                       *****************************
                       * Geometry Optimization Run *
                       *****************************

Geometry optimization settings:
Update method            Update   .... BFGS
Choice of coordinates    CoordSys .... Z-matrix Internals
Initial Hessian          InHess   .... Almoef's Model

Convergence Tolerances:
Energy Change            TolE     ....  5.0000e-06 Eh
Max. Gradient            TolMAXG  ....  3.0000e-04 Eh/bohr
RMS Gradient             TolRMSG  ....  1.0000e-04 Eh/bohr
Max. Displacement        TolMAXD  ....  4.0000e-03 bohr
RMS Displacement         TolRMSD  ....  2.0000e-03 bohr
Strict Convergence                ....  False
------------------------------------------------------------------------------
                        ORCA OPTIMIZATION COORDINATE SETUP
------------------------------------------------------------------------------

The optimization will be done in new redundant internal coordinates
Making redundant internal coordinates   ...  (new redundants) done
Evaluating the initial hessian          ...  (Almloef) done
Evaluating the coordinates              ...  done
Calculating the B-matrix                .... done
Calculating the G-matrix                .... done
Diagonalizing the G-matrix              .... done
The first mode is                       ....   55
The number of degrees of freedom        ....   15

    -----------------------------------------------------------------
                    Redundant Internal Coordinates


    -----------------------------------------------------------------
         Definition                    Initial Value    Approx d2E/dq
    -----------------------------------------------------------------
      1. B(S   1,O   0)                  1.4661         1.140709   
      2. B(O   2,S   1)                  1.4661         1.140765   
      3. B(O   3,S   1)                  1.4661         1.140739   
      4. B(O   4,S   1)                  1.4661         1.140768   
      5. B(K   5,S   1)                  3.0140         0.190054   
      6. B(K   5,O   2)                  2.4426         0.514937   
      7. B(K   5,O   0)                  2.4426         0.514944   
      8. B(K   6,O   4)                  2.4426         0.514929   
      9. B(K   6,O   3)                  2.4426         0.514941   
     10. B(K   6,S   1)                  3.0140         0.190054   
     11. A(S   1,O   0,K   5)           97.7668         0.587049   
     12. A(O   2,S   1,K   6)          126.5869         0.505545   
     13. A(O   0,S   1,K   5)           53.4181         0.505541   
     14. A(O   4,S   1,K   6)           53.4183         0.505546   
     15. A(O   2,S   1,O   4)          110.8050         0.602580   
     16. A(O   3,S   1,K   5)          126.5809         0.505543   
     17. A(O   0,S   1,O   4)          110.8042         0.602574   
     18. A(O   2,S   1,K   5)           53.4182         0.505546   
     19. A(O   3,S   1,O   4)          106.8364         0.602577   
     20. A(O   0,S   1,O   2)          106.8363         0.602574   
     21. A(O   2,S   1,O   3)          110.8046         0.602577   
     22. A(O   4,S   1,K   5)          126.5827         0.505546   
     23. A(O   3,S   1,K   6)           53.4181         0.505543   
     24. A(O   0,S   1,O   3)          110.8042         0.602571   
     25. A(O   0,S   1,K   6)          126.5769         0.505541   
     26. A(S   1,O   2,K   5)           97.7670         0.587053   
     27. A(S   1,O   3,K   6)           97.7669         0.587051   
     28. A(S   1,O   4,K   6)           97.7669         0.587051   
     29. A(S   1,K   5,O   2)           28.8148         0.492952   
     30. A(O   0,K   5,O   2)           57.6300         0.571996   
     31. A(O   0,K   5,S   1)           28.8151         0.492953   
     32. A(O   3,K   6,O   4)           57.6298         0.571994   
     33. A(S   1,K   6,O   4)           28.8148         0.492950   
     34. A(S   1,K   6,O   3)           28.8150         0.492952   
     35. D(O   3,S   1,O   0,K   5)    120.7927         0.034419   
     36. D(O   4,S   1,O   0,K   5)   -120.7949         0.034419   
     37. D(K   6,S   1,O   0,K   5)    179.9988         0.034419   
     38. D(O   2,S   1,O   0,K   5)     -0.0008         0.034419   
     39. D(K   5,O   2,S   1,O   4)    120.7944         0.034423   
     40. D(K   5,O   2,S   1,O   0)      0.0008         0.034423   
     41. D(K   5,O   2,S   1,K   6)   -179.9988         0.034423   
     42. D(K   5,O   2,S   1,O   3)   -120.7925         0.034423   
     43. D(K   6,O   3,S   1,K   5)    179.9937         0.034421   
     44. D(K   6,O   3,S   1,O   4)     -0.0055         0.034421   
     45. D(K   6,O   3,S   1,O   2)   -120.7999         0.034421   
     46. D(K   6,O   3,S   1,O   0)    120.7877         0.034421   
     47. D(K   6,O   4,S   1,O   2)    120.7996         0.034423   
     48. D(K   6,O   4,S   1,O   0)   -120.7877         0.034423   
     49. D(K   6,O   4,S   1,O   3)      0.0055         0.034423   
     50. D(K   6,O   4,S   1,K   5)   -179.9937         0.034423   
     51. D(O   0,K   5,O   2,S   1)     -0.0006         0.001746   
     52. D(O   2,K   5,S   1,O   3)     90.0008         0.001522   
     53. D(O   2,K   5,S   1,O   0)   -179.9990         0.001522   
     54. D(O   0,K   5,S   1,O   4)     89.9989         0.001522   
     55. D(O   0,K   5,S   1,O   3)    -90.0002         0.001522   
     56. D(O   2,K   5,S   1,O   4)    -90.0002         0.001522   
     57. D(O   0,K   5,S   1,O   2)    179.9990         0.001522   
     58. D(O   2,K   5,O   0,S   1)      0.0006         0.001746   
     59. D(O   4,K   6,S   1,O   3)   -179.9935         0.001522   
     60. D(O   4,K   6,S   1,O   2)    -89.9971         0.001522   
     61. D(O   4,K   6,S   1,O   0)     90.0033         0.001522   
     62. D(O   3,K   6,S   1,O   4)    179.9935         0.001522   
     63. D(O   3,K   6,S   1,O   2)     89.9963         0.001522   
     64. D(O   4,K   6,O   3,S   1)      0.0037         0.001746   
     65. D(O   3,K   6,S   1,O   0)    -90.0032         0.001522   
     66. D(O   4,K   6,K   5,O   2)    -89.9910         0.001500   
     67. D(O   4,K   6,K   5,O   0)     90.0063         0.001500   
     68. D(O   3,K   6,K   5,O   2)     89.9933         0.001500   
     69. D(O   3,K   6,K   5,O   0)    -90.0094         0.001500   
     70. D(O   3,K   6,O   4,S   1)     -0.0037         0.001746   
    -----------------------------------------------------------------

Number of atoms                         .... 7
Number of degrees of freedom            .... 70

         *************************************************************
         *                GEOMETRY OPTIMIZATION CYCLE   1            *
         *************************************************************
---------------------------------
CARTESIAN COORDINATES (ANGSTROEM)
---------------------------------
  O      0.945890    0.282950   -0.278550
  S      2.353290   -0.046520   -0.033140
  O      3.135550    1.141960   -0.386830
  O      2.565630   -0.410790    1.371050
  O      2.766060   -1.200200   -0.838220
  K      1.275130    2.571490   -1.066370
  K      3.431200   -2.664610    1.000150

----------------------------
CARTESIAN COORDINATES (A.U.)
----------------------------
  NO LB      ZA    FRAG     MASS         X           Y           Z
   0 O     8.0000    0    15.999    1.787473    0.534698   -0.526383
   1 S    16.0000    0    32.060    4.447074   -0.087910   -0.062626
   2 O     8.0000    0    15.999    5.925331    2.157992   -0.731003
   3 O     8.0000    0    15.999    4.848338   -0.776281    2.590909
   4 O     8.0000    0    15.999    5.227096   -2.268049   -1.584006
   5 K    19.0000    0    39.100    2.409646    4.859412   -2.015147
   6 K    19.0000    0    39.100    6.484028   -5.035383    1.890010

--------------------------------
INTERNAL COORDINATES (ANGSTROEM)
--------------------------------
 O      0   0   0     0.000000000000     0.00000000     0.00000000
 S      1   0   0     1.466134819517     0.00000000     0.00000000
 O      2   1   0     1.466121425428   106.83625983     0.00000000
 O      2   1   3     1.466127710877   110.80423957   120.79356018
 O      2   1   3     1.466120875542   110.80420260   239.20588974
 K      1   2   3     2.442636825564    97.76677554     0.00000000
 K      4   2   1     2.442638497056    97.76694163   120.78769518

---------------------------
INTERNAL COORDINATES (A.U.)
---------------------------
 O      0   0   0     0.000000000000     0.00000000     0.00000000
 S      1   0   0     2.770593284293     0.00000000     0.00000000
 O      2   1   0     2.770567973134   106.83625983     0.00000000
 O      2   1   3     2.770579850909   110.80423957   120.79356018
 O      2   1   3     2.770566933999   110.80420260   239.20588974
 K      1   2   3     4.615914644946    97.76677554     0.00000000
 K      4   2   1     4.615917803609    97.76694163   120.78769518

---------------------
BASIS SET INFORMATION
---------------------
There are 3 groups of distinct atoms

 Group   1 Type O   : 7s4p1d contracted to 3s2p1d pattern {511/31/1}
 Group   2 Type S   : 10s7p1d contracted to 4s3p1d pattern {5311/511/1}
 Group   3 Type K   : 14s9p2d contracted to 5s3p2d pattern {63311/531/11}

Atom   0O    basis set group =>   1
Atom   1S    basis set group =>   2
Atom   2O    basis set group =>   1
Atom   3O    basis set group =>   1
Atom   4O    basis set group =>   1
Atom   5K    basis set group =>   3
Atom   6K    basis set group =>   3
---------------------------------
AUXILIARY/J BASIS SET INFORMATION
---------------------------------
There are 3 groups of distinct atoms

 Group   1 Type O   : 12s5p4d2f1g contracted to 6s4p3d1f1g pattern {711111/2111/211/2/1}
 Group   2 Type S   : 14s5p5d2f1g contracted to 8s4p3d1f1g pattern {71111111/2111/311/2/1}
 Group   3 Type K   : 19s5p5d3f1g contracted to 8s4p4d1f1g pattern {121111111/2111/2111/3/1}

Atom   0O    basis set group =>   1
Atom   1S    basis set group =>   2
Atom   2O    basis set group =>   1
Atom   3O    basis set group =>   1
Atom   4O    basis set group =>   1
Atom   5K    basis set group =>   3
Atom   6K    basis set group =>   3
------------------------------------------------------------------------------
                           ORCA GTO INTEGRAL CALCULATION
                           -- RI-GTO INTEGRALS CHOSEN --
------------------------------------------------------------------------------
------------------------------------------------------------------------------
                   ___                                                        
                  /   \      - P O W E R E D   B Y -                         
                 /     \                                                     
                 |  |  |   _    _      __       _____    __    __             
                 |  |  |  | |  | |    /  \     |  _  \  |  |  /  |          
                  \  \/   | |  | |   /    \    | | | |  |  | /  /          
                 / \  \   | |__| |  /  /\  \   | |_| |  |  |/  /          
                |  |  |   |  __  | /  /__\  \  |    /   |      \           
                |  |  |   | |  | | |   __   |  |    \   |  |\   \          
                \     /   | |  | | |  |  |  |  | |\  \  |  | \   \       
                 \___/    |_|  |_| |__|  |__|  |_| \__\ |__|  \__/        
                                                                              
                      - O R C A' S   B I G   F R I E N D -                    
                                      &                                       
                       - I N T E G R A L  F E E D E R -                       
                                                                              
 v1 FN, 2020, v2 2021                                                         
------------------------------------------------------------------------------


Reading SHARK input file K2SO4_DFT.SHARKINP.tmp ... SHARK General Contraction Test:  Segmented basis detected
   -> Pre-screening matrix *NOT* found on disk - recalculating with NShells=52
   -> Leaving CheckPreScreeningMatrix
ok
----------------------
SHARK INTEGRAL PACKAGE
----------------------

Number of atoms                             ...      7
Number of basis functions                   ...    122
Number of shells                            ...     52
Maximum angular momentum                    ...      2
Integral batch strategy                     ... SHARK/LIBINT Hybrid
RI-J (if used) integral strategy            ... SPLIT-RIJ (Revised 2003 algorithm where possible)
Printlevel                                  ...      2
Contraction scheme used                     ... SEGMENTED contraction
Coulomb Range Separation                    ... NOT USED
Exchange Range Separation                   ... NOT USED
Finite Nucleus Model                        ... NOT USED
Auxiliary Coulomb fitting basis             ... AVAILABLE
   # of basis functions in Aux-J            ...    359
   # of shells in Aux-J                     ...    113
   Maximum angular momentum in Aux-J        ...      4
Auxiliary J/K fitting basis                 ... NOT available
Auxiliary Correlation fitting basis         ... NOT available
Auxiliary 'external' fitting basis          ... NOT available
Integral threshold                          ...     2.500000e-11
Primitive cut-off                           ...     2.500000e-12
Primitive pair pre-selection threshold      ...     2.500000e-12

Calculating pre-screening integrals         ... done (  0.2 sec) Dimension = 52
Organizing shell pair data                  ... done (  0.1 sec)
Shell pair information
Total number of shell pairs                 ...      1378
Shell pairs after pre-screening             ...      1267
Total number of primitive shell pairs       ...      6929
Primitive shell pairs kept                  ...      4435
          la=0 lb=0:    301 shell pairs
          la=1 lb=0:    406 shell pairs
          la=1 lb=1:    146 shell pairs
          la=2 lb=0:    222 shell pairs
          la=2 lb=1:    147 shell pairs
          la=2 lb=2:     45 shell pairs

Calculating one electron integrals          ... done (  0.0 sec)
Calculating RI/J V-Matrix + Cholesky decomp.... done (  0.0 sec)
Calculating Nuclear repulsion               ... done (  0.0 sec) ENN=    619.055505977834 Eh

SHARK setup successfully completed in   0.8 seconds

Maximum memory used throughout the entire GTOINT-calculation: 19.5 MB
-------------------------------------------------------------------------------
                                 ORCA SCF
-------------------------------------------------------------------------------

------------
SCF SETTINGS
------------
Hamiltonian:
 Density Functional     Method          .... DFT(GTOs)
 Exchange Functional    Exchange        .... B88
   X-Alpha parameter    XAlpha          ....  0.666667
   Becke's b parameter  XBeta           ....  0.004200
 Correlation Functional Correlation     .... LYP
 LDA part of GGA corr.  LDAOpt          .... VWN-5
 Gradients option       PostSCFGGA      .... off
 Hybrid DFT is turned on
   Fraction HF Exchange ScalHFX         ....  0.200000
   Scaling of DF-GGA-X  ScalDFX         ....  0.720000
   Scaling of DF-GGA-C  ScalDFC         ....  0.810000
   Scaling of DF-LDA-C  ScalLDAC        ....  1.000000
   Perturbative correction              ....  0.000000
   Density functional embedding theory  .... OFF
   NL short-range parameter             ....  4.800000
 RI-approximation to the Coulomb term is turned on
   Number of AuxJ basis functions       .... 359
   RIJ-COSX (HFX calculated with COS-X)).... on


General Settings:
 Integral files         IntName         .... K2SO4_DFT
 Hartree-Fock type      HFTyp           .... RHF
 Total Charge           Charge          ....  -10
 Multiplicity           Mult            ....    1
 Number of Electrons    NEL             ....   96
 Basis Dimension        Dim             ....  122
 Nuclear Repulsion      ENuc            ....    619.0555059778 Eh

Convergence Acceleration:
 DIIS                   CNVDIIS         .... on
   Start iteration      DIISMaxIt       ....    12
   Startup error        DIISStart       ....  0.200000
   # of expansion vecs  DIISMaxEq       ....     5
   Bias factor          DIISBfac        ....   1.050
   Max. coefficient     DIISMaxC        ....  10.000
 Trust-Rad. Augm. Hess. CNVTRAH         .... auto
   Auto Start mean grad. ratio tolernc. ....  1.125000
   Auto Start start iteration           ....    20
   Auto Start num. interpolation iter.  ....    10
   Max. Number of Micro iterations      ....    16
   Max. Number of Macro iterations      .... Maxiter - #DIIS iter
   Number of Davidson start vectors     ....     2
   Converg. threshold I  (grad. norm)   ....   1.000e-05
   Converg. threshold II (energy diff.) ....   1.000e-08
   Grad. Scal. Fac. for Micro threshold ....   0.100
   Minimum threshold for Micro iter.    ....   0.010
   NR start threshold (gradient norm)   ....   0.001
   Initial trust radius                 ....   0.400
   Minimum AH scaling param. (alpha)    ....   1.000
   Maximum AH scaling param. (alpha)    .... 1000.000
   Orbital update algorithm             .... Taylor
   White noise on init. David. guess    .... on
   Maximum white noise                  ....   0.010
   Quad. conv. algorithm                .... NR
 SOSCF                  CNVSOSCF        .... on
   Start iteration      SOSCFMaxIt      ....   150
   Startup grad/error   SOSCFStart      ....  0.003300
 Level Shifting         CNVShift        .... on
   Level shift para.    LevelShift      ....    0.2500
   Turn off err/grad.   ShiftErr        ....    0.0010
 Zerner damping         CNVZerner       .... off
 Static damping         CNVDamp         .... on
   Fraction old density DampFac         ....    0.7000
   Max. Damping (<1)    DampMax         ....    0.9800
   Min. Damping (>=0)   DampMin         ....    0.0000
   Turn off err/grad.   DampErr         ....    0.1000
 Fernandez-Rico         CNVRico         .... off

SCF Procedure:
 Maximum # iterations   MaxIter         ....   125
 SCF integral mode      SCFMode         .... Direct
   Integral package                     .... SHARK and LIBINT hybrid scheme
 Reset frequency        DirectResetFreq ....    20
 Integral Threshold     Thresh          ....  2.500e-11 Eh
 Primitive CutOff       TCut            ....  2.500e-12 Eh

Convergence Tolerance:
 Convergence Check Mode ConvCheckMode   .... Total+1el-Energy
 Convergence forced     ConvForced      .... 0
 Energy Change          TolE            ....  1.000e-08 Eh
 1-El. energy change                    ....  1.000e-05 Eh
 Orbital Gradient       TolG            ....  1.000e-05
 Orbital Rotation angle TolX            ....  1.000e-05
 DIIS Error             TolErr          ....  5.000e-07


Diagonalization of the overlap matrix:
Smallest eigenvalue                        ... 5.095e-03
Time for diagonalization                   ...    0.003 sec
Threshold for overlap eigenvalues          ... 1.000e-08
Number of eigenvalues below threshold      ... 0
Time for construction of square roots      ...    0.004 sec
Total time needed                          ...    0.007 sec

SHARK General Contraction Test:  Segmented basis detected
   -> Pre-screening matrix found on disk - Trying to read with NShells=52
   -> Passing Pre-screening matrix on to SHARK ...ok
   -> Leaving CheckPreScreeningMatrix
----------------------
SHARK INTEGRAL PACKAGE
----------------------

Number of atoms                             ...      7
Number of basis functions                   ...    122
Number of shells                            ...     52
Maximum angular momentum                    ...      2
Integral batch strategy                     ... SHARK/LIBINT Hybrid
RI-J (if used) integral strategy            ... SPLIT-RIJ (Revised 2003 algorithm where possible)
Printlevel                                  ...      2
Contraction scheme used                     ... SEGMENTED contraction
Coulomb Range Separation                    ... NOT USED
Exchange Range Separation                   ... NOT USED
Finite Nucleus Model                        ... NOT USED
Auxiliary Coulomb fitting basis             ... AVAILABLE
   # of basis functions in Aux-J            ...    359
   # of shells in Aux-J                     ...    113
   Maximum angular momentum in Aux-J        ...      4
Auxiliary J/K fitting basis                 ... NOT available
Auxiliary Correlation fitting basis         ... NOT available
Auxiliary 'external' fitting basis          ... NOT available
Integral threshold                          ...     2.500000e-11
Primitive cut-off                           ...     2.500000e-12
Primitive pair pre-selection threshold      ...     2.500000e-12

Time for model grid setup =    0.491 sec

------------------------------
INITIAL GUESS: MODEL POTENTIAL
------------------------------
Loading Hartree-Fock densities                     ... done
Calculating cut-offs                               ... done
Initializing the effective Hamiltonian             ... done
Setting up the integral package (SHARK)            ... done
Starting the Coulomb interaction                   ...     -> Generating integrals - 
    -> L=0 0 :     0.011 sec done=     28837 skipped=        55 prim-skipped=         0
    -> L=1 0 :     0.016 sec done=     38654 skipped=       194 prim-skipped=         0
    -> L=1 1 :     0.080 sec done=     13838 skipped=        92 prim-skipped=         0
    -> L=2 0 :     0.010 sec done=     21108 skipped=       144 prim-skipped=         0
    -> L=2 1 :     0.010 sec done=     14112 skipped=         0 prim-skipped=         0
    -> L=2 2 :     0.074 sec done=      4316 skipped=         4 prim-skipped=         0
done (   0.3 sec)
Reading the grid                                   ... done
Mapping shells                                     ... done
Starting the XC term evaluation                    ... done (   0.5 sec)
  promolecular density results
     # of electrons  =     85.999738315
     EX              =   -123.269866680
     EC              =     -3.466716987
     EX+EC           =   -126.736583667
Transforming the Hamiltonian                       ... done (   0.0 sec)
Diagonalizing the Hamiltonian                      ... done (   0.0 sec)
Back transforming the eigenvectors                 ... done (   0.0 sec)
Now organizing SCF variables                       ... done
                      ------------------
                      INITIAL GUESS DONE (   1.3 sec)
                      ------------------
-------------------
DFT GRID GENERATION
-------------------

General Integration Accuracy     IntAcc      ... 4.388
Radial Grid Type                 RadialGrid  ... OptM3 with GC (2021)
Angular Grid (max. ang.)         AngularGrid ... 4 (Lebedev-302)
Angular grid pruning method      GridPruning ... 4 (adaptive)
Weight generation scheme         WeightScheme... Becke
Basis function cutoff            BFCut       ... 1.0000e-11
Integration weight cutoff        WCut        ... 1.0000e-14
Angular grids for H and He will be reduced by one unit
Partially contracted basis set               ... off
Rotationally invariant grid construction     ... off

Total number of grid points                  ...    53963
Total number of batches                      ...      846
Average number of points per batch           ...       63
Average number of grid points per atom       ...     7709
Time for grid setup =    1.793 sec

--------------------
COSX GRID GENERATION
--------------------

GRIDX 1
-------
General Integration Accuracy     IntAcc      ... 3.816
Radial Grid Type                 RadialGrid  ... OptM3 with GC (2021)
Angular Grid (max. ang.)         AngularGrid ... 1 (Lebedev-50)
Angular grid pruning method      GridPruning ... 4 (adaptive)
Weight generation scheme         WeightScheme... Becke
Basis function cutoff            BFCut       ... 1.0000e-11
Integration weight cutoff        WCut        ... 1.0000e-14
Angular grids for H and He will be reduced by one unit
Partially contracted basis set               ... on
Rotationally invariant grid construction     ... off

Total number of grid points                  ...     6339
Total number of batches                      ...      101
Average number of points per batch           ...       62
Average number of grid points per atom       ...      906
UseSFitting                                  ... on

GRIDX 2
-------
General Integration Accuracy     IntAcc      ... 4.020
Radial Grid Type                 RadialGrid  ... OptM3 with GC (2021)
Angular Grid (max. ang.)         AngularGrid ... 2 (Lebedev-110)
Angular grid pruning method      GridPruning ... 4 (adaptive)
Weight generation scheme         WeightScheme... Becke
Basis function cutoff            BFCut       ... 1.0000e-11
Integration weight cutoff        WCut        ... 1.0000e-14
Angular grids for H and He will be reduced by one unit
Partially contracted basis set               ... on
Rotationally invariant grid construction     ... off

Total number of grid points                  ...    14626
Total number of batches                      ...      231
Average number of points per batch           ...       63
Average number of grid points per atom       ...     2089
UseSFitting                                  ... on

GRIDX 3
-------
General Integration Accuracy     IntAcc      ... 4.338
Radial Grid Type                 RadialGrid  ... OptM3 with GC (2021)
Angular Grid (max. ang.)         AngularGrid ... 3 (Lebedev-194)
Angular grid pruning method      GridPruning ... 4 (adaptive)
Weight generation scheme         WeightScheme... Becke
Basis function cutoff            BFCut       ... 1.0000e-11
Integration weight cutoff        WCut        ... 1.0000e-14
Angular grids for H and He will be reduced by one unit
Partially contracted basis set               ... on
Rotationally invariant grid construction     ... off

Total number of grid points                  ...    33508
Total number of batches                      ...      529
Average number of points per batch           ...       63
Average number of grid points per atom       ...     4787
UseSFitting                                  ... on

Time for X-Grid setup             =    2.103 sec


--------------------
CPCM SOLVATION MODEL
--------------------
CPCM parameters:
  Epsilon                                         ...      69.0000
  Refrac                                          ...       1.3400
  Rsolv                                           ...       1.3000
  Surface type                                    ... GAUSSIAN VDW
  Epsilon function type                           ...         CPCM
Radii:
 Radius for O  used is    3.4469 Bohr (=   1.8240 Ang.)
 Radius for S  used is    4.0818 Bohr (=   2.1600 Ang.)
 Radius for K  used is    6.2361 Bohr (=   3.3000 Ang.)
Calculating surface                               ...        done! (  0.0s)
GEPOL surface points                              ...          387
GEPOL Volume                                      ...    2116.1158
GEPOL Surface-area                                ...     919.9940
Calculating surface distance matrix               ...        done! (  0.0s)
Performing Cholesky decomposition & store         ...        done! (  0.1s)
Overall time for CPCM initialization              ...                 0.1s
--------------
SCF ITERATIONS
--------------
               ***  Starting incremental Fock matrix formation  ***
==>> SHARK/AuxDens: NDens=1 Thresh =     2.500000e-11 TCut=    2.500000e-12 Lmax=2 LmaxAux=4
    -> Making Hermite density - ok     0.003 sec
    -> Making Aux-basis density - (lmax=2)
    -> L=0 0:    0.011 sec done=     33417 ( 98.2%) skipped=       596 
    -> L=1 0:    0.092 sec done=     44978 ( 98.0%) skipped=       898 
    -> L=1 1:    0.015 sec done=     16272 ( 98.6%) skipped=       224 
    -> L=2 0:    0.082 sec done=     23232 ( 92.6%) skipped=      1854 
    -> L=2 1:    0.018 sec done=     16611 (100.0%) skipped=         0 
    -> L=2 2:    0.074 sec done=      5047 ( 99.3%) skipped=        38 
    -> Aux basis density formed in    0.3 sec
    -> Solving linear equations - ok (   0.0 sec)
        Auxbasis Hermite Density:
        P|s>                     ...  0.000
        P|p>                     ...  0.000
        P|d>                     ...  0.000
        P|f>                     ...  0.000
        P|g>                     ...  0.000
        Building the Coulomb matrix: 
        J|ss>                          ... done (  0.0 sec) ndone=   230644 nskipped1=      727 nskipped2=     5874
        J|ps>                          ... done (  0.1 sec) ndone=   287275 nskipped1=     2748 nskipped2=    16339
        J|pp>                          ... done (  0.0 sec) ndone=   115661 nskipped1=     1155 nskipped2=     4620
        J|ds>                          ... done (  0.0 sec) ndone=    87564 nskipped1=     2417 nskipped2=     9701
        J|dp>                          ... done (  0.1 sec) ndone=    61211 nskipped1=       66 nskipped2=     1260
        J|dd>                          ... done (  0.0 sec) ndone=     8465 nskipped1=        6 nskipped2=       33
        Coulomb matrix built in   0.2 sec

        Total time for Split-RI-J                ...    0.505 sec
          (0) Prelude                            ...    0.000 sec
          (1) Hermite density                    ...    0.000 sec
          (2) Aux basis density                  ...    0.000 sec (inner=  0.0)
          (3) Linear equation solution           ...    0.000 sec
          (4) J-Matrix construction              ...    0.207 sec (inner=  0.2)
        ---------------------------------------------------------

                         ----------------------------
                         !        ITERATION     0   !
                         ----------------------------
   Total Energy        :   -1897.452134540335 Eh
   Energy Change       :   -1897.452134540335 Eh
   MAX-DP              :       0.306764006968
   RMS-DP              :       0.009278679563
   Actual Damping      :       0.7000
   Actual Level Shift  :       0.2500 Eh
   Int. Num. El.       :    95.93889044 (UP=   47.96944522 DN=   47.96944522)
   Exchange            :  -100.66149093
   Correlation         :    -4.33868784

==>> SHARK/AuxDens: NDens=1 Thresh =     2.500000e-11 TCut=    2.500000e-12 Lmax=2 LmaxAux=4
    -> Making Hermite density - ok     0.074 sec
    -> Making Aux-basis density - (lmax=2)
    -> L=0 0:    0.011 sec done=     33224 ( 97.7%) skipped=       789 
    -> L=1 0:    0.096 sec done=     44656 ( 97.3%) skipped=      1220 
    -> L=1 1:    0.091 sec done=     16272 ( 98.6%) skipped=       224 
    -> L=2 0:    0.014 sec done=     22466 ( 89.6%) skipped=      2620 
    -> L=2 1:    0.090 sec done=     16437 ( 99.0%) skipped=       174 
    -> L=2 2:    0.005 sec done=      4972 ( 97.8%) skipped=       113 
    -> Aux basis density formed in    0.3 sec
    -> Solving linear equations - ok (   0.0 sec)
        Auxbasis Hermite Density:
        P|s>                     ...  0.000
        P|p>                     ...  0.000
        P|d>                     ...  0.000
        P|f>                     ...  0.000
        P|g>                     ...  0.000
        Building the Coulomb matrix: 
        J|ss>                          ... done (  0.0 sec) ndone=   228484 nskipped1=     2313 nskipped2=     5716
        J|ps>                          ... done (  0.1 sec) ndone=   284808 nskipped1=     5050 nskipped2=    13970
        J|pp>                          ... done (  0.1 sec) ndone=   115622 nskipped1=     1290 nskipped2=     3994
        J|ds>                          ... done (  0.0 sec) ndone=    85256 nskipped1=     4927 nskipped2=     7326
        J|dp>                          ... done (  0.1 sec) ndone=    61181 nskipped1=       96 nskipped2=     1260
        J|dd>                          ... done (  0.0 sec) ndone=     8440 nskipped1=       22 nskipped2=       33
        Coulomb matrix built in   0.3 sec

        Total time for Split-RI-J                ...    0.680 sec
          (0) Prelude                            ...    0.000 sec
          (1) Hermite density                    ...    0.000 sec
          (2) Aux basis density                  ...    0.000 sec (inner=  0.0)
          (3) Linear equation solution           ...    0.000 sec
          (4) J-Matrix construction              ...    0.295 sec (inner=  0.3)
        ---------------------------------------------------------

                         ----------------------------
                         !        ITERATION     1   !
                         ----------------------------
   Total Energy        :   -1897.776279967376 Eh
   Energy Change       :      -0.324145427041 Eh
   MAX-DP              :       0.432185891600
   RMS-DP              :       0.009909587869
   Actual Damping      :       0.7000
   Actual Level Shift  :       0.2500 Eh
   Int. Num. El.       :    95.91353967 (UP=   47.95676983 DN=   47.95676983)
   Exchange            :  -100.00642483
   Correlation         :    -4.31756498

==>> SHARK/AuxDens: NDens=1 Thresh =     2.500000e-11 TCut=    2.500000e-12 Lmax=2 LmaxAux=4
    -> Making Hermite density - ok     0.003 sec
    -> Making Aux-basis density - (lmax=2)
    -> L=0 0:    0.014 sec done=     33216 ( 97.7%) skipped=       797 
    -> L=1 0:    0.094 sec done=     44580 ( 97.2%) skipped=      1296 
    -> L=1 1:    0.097 sec done=     16272 ( 98.6%) skipped=       224 
    -> L=2 0:    0.012 sec done=     22307 ( 88.9%) skipped=      2779 
    -> L=2 1:    0.088 sec done=     16296 ( 98.1%) skipped=       315 
    -> L=2 2:    0.005 sec done=      4972 ( 97.8%) skipped=       113 
    -> Aux basis density formed in    0.3 sec
    -> Solving linear equations - ok (   0.0 sec)
        Auxbasis Hermite Density:
        P|s>                     ...  0.000
        P|p>                     ...  0.000
        P|d>                     ...  0.000
        P|f>                     ...  0.000
        P|g>                     ...  0.000
        Building the Coulomb matrix: 
        J|ss>                          ... done (  0.0 sec) ndone=   227533 nskipped1=     2820 nskipped2=     5556
        J|ps>                          ... done (  0.1 sec) ndone=   283787 nskipped1=     5794 nskipped2=    13575
        J|pp>                          ... done (  0.1 sec) ndone=   115467 nskipped1=     1345 nskipped2=     3994
        J|ds>                          ... done (  0.0 sec) ndone=    84424 nskipped1=     5775 nskipped2=     6746
        J|dp>                          ... done (  0.0 sec) ndone=    61115 nskipped1=      118 nskipped2=     1260
        J|dd>                          ... done (  0.0 sec) ndone=     8434 nskipped1=       24 nskipped2=       33
        Coulomb matrix built in   0.2 sec

        Total time for Split-RI-J                ...    0.525 sec
          (0) Prelude                            ...    0.000 sec
          (1) Hermite density                    ...    0.000 sec
          (2) Aux basis density                  ...    0.000 sec (inner=  0.0)
          (3) Linear equation solution           ...    0.000 sec
          (4) J-Matrix construction              ...    0.209 sec (inner=  0.2)
        ---------------------------------------------------------
                               ***Turning on DIIS***

                         ----------------------------
                         !        ITERATION     2   !
                         ----------------------------
   Total Energy        :   -1897.916719441096 Eh
   Energy Change       :      -0.140439473720 Eh
   MAX-DP              :       1.569739288265
   RMS-DP              :       0.029002706944
   Actual Damping      :       0.0000
   Actual Level Shift  :       0.2500 Eh
   Int. Num. El.       :    95.87820945 (UP=   47.93910473 DN=   47.93910473)
   Exchange            :   -99.61735795
   Correlation         :    -4.30141370
   DIIS-Error          :       0.033857625045

==>> SHARK/AuxDens: NDens=1 Thresh =     2.500000e-11 TCut=    2.500000e-12 Lmax=2 LmaxAux=4
    -> Making Hermite density - ok     0.005 sec
    -> Making Aux-basis density - (lmax=2)
    -> L=0 0:    0.018 sec done=     33695 ( 99.1%) skipped=       318 
    -> L=1 0:    0.180 sec done=     44872 ( 97.8%) skipped=      1004 
    -> L=1 1:    0.098 sec done=     16272 ( 98.6%) skipped=       224 
    -> L=2 0:    0.021 sec done=     22762 ( 90.7%) skipped=      2324 
    -> L=2 1:    0.179 sec done=     16569 ( 99.7%) skipped=        42 
    -> L=2 2:    0.008 sec done=      4987 ( 98.1%) skipped=        98 
    -> Aux basis density formed in    0.5 sec
    -> Solving linear equations - ok (   0.0 sec)
        Auxbasis Hermite Density:
        P|s>                     ...  0.000
        P|p>                     ...  0.000
        P|d>                     ...  0.000
        P|f>                     ...  0.000
        P|g>                     ...  0.000
        Building the Coulomb matrix: 
        J|ss>                          ... done (  0.1 sec) ndone=   228937 nskipped1=     1870 nskipped2=     5664
        J|ps>                          ... done (  0.1 sec) ndone=   285304 nskipped1=     4568 nskipped2=    13962
        J|pp>                          ... done (  0.1 sec) ndone=   115692 nskipped1=     1230 nskipped2=     3994
        J|ds>                          ... done (  0.1 sec) ndone=    85803 nskipped1=     4351 nskipped2=     7372
        J|dp>                          ... done (  0.0 sec) ndone=    61228 nskipped1=       49 nskipped2=     1260
        J|dd>                          ... done (  0.0 sec) ndone=     8453 nskipped1=       13 nskipped2=       33
        Coulomb matrix built in   0.4 sec

        Total time for Split-RI-J                ...    0.926 sec
          (0) Prelude                            ...    0.000 sec
          (1) Hermite density                    ...    0.000 sec
          (2) Aux basis density                  ...    0.000 sec (inner=  0.0)
          (3) Linear equation solution           ...    0.000 sec
          (4) J-Matrix construction              ...    0.414 sec (inner=  0.4)
        ---------------------------------------------------------

                         ----------------------------
                         !        ITERATION     3   !
                         ----------------------------
   Total Energy        :   -1898.179690261259 Eh
   Energy Change       :      -0.262970820163 Eh
   MAX-DP              :       0.340362398040
   RMS-DP              :       0.005281564005
   Actual Damping      :       0.0000
   Actual Level Shift  :       0.2500 Eh
   Int. Num. El.       :    95.76096335 (UP=   47.88048167 DN=   47.88048167)
   Exchange            :   -99.10238548
   Correlation         :    -4.26956518
   DIIS-Error          :       0.093284278919
   DIIS coefficients:
      0.69474   0.30526

==>> SHARK/AuxDens: NDens=1 Thresh =     2.500000e-11 TCut=    2.500000e-12 Lmax=2 LmaxAux=4
    -> Making Hermite density - ok     0.006 sec
    -> Making Aux-basis density - (lmax=2)
    -> L=0 0:    0.186 sec done=     32313 ( 95.0%) skipped=      1700 
    -> L=1 0:    0.212 sec done=     43252 ( 94.3%) skipped=      2624 
    -> L=1 1:    0.195 sec done=     16270 ( 98.6%) skipped=       226 
    -> L=2 0:    0.104 sec done=     21994 ( 87.7%) skipped=      3092 
    -> L=2 1:    0.193 sec done=     16178 ( 97.4%) skipped=       433 
    -> L=2 2:    0.009 sec done=      4972 ( 97.8%) skipped=       113 
    -> Aux basis density formed in    0.9 sec
    -> Solving linear equations - ok (   0.1 sec)
        Auxbasis Hermite Density:
        P|s>                     ...  0.000
        P|p>                     ...  0.000
        P|d>                     ...  0.000
        P|f>                     ...  0.000
        P|g>                     ...  0.000
        Building the Coulomb matrix: 
        J|ss>                          ... done (  0.1 sec) ndone=   226349 nskipped1=     3660 nskipped2=     5220
        J|ps>                          ... done (  0.2 sec) ndone=   282912 nskipped1=     6702 nskipped2=    12870
        J|pp>                          ... done (  0.1 sec) ndone=   115537 nskipped1=     1350 nskipped2=     3994
        J|ds>                          ... done (  0.1 sec) ndone=    83651 nskipped1=     6574 nskipped2=     5902
        J|dp>                          ... done (  0.1 sec) ndone=    61147 nskipped1=      120 nskipped2=     1260
        J|dd>                          ... done (  0.0 sec) ndone=     8423 nskipped1=       33 nskipped2=       29
        Coulomb matrix built in   0.6 sec

        Total time for Split-RI-J                ...    1.598 sec
          (0) Prelude                            ...    0.000 sec
          (1) Hermite density                    ...    0.000 sec
          (2) Aux basis density                  ...    0.000 sec (inner=  0.0)
          (3) Linear equation solution           ...    0.000 sec
          (4) J-Matrix construction              ...    0.608 sec (inner=  0.6)
        ---------------------------------------------------------

                         ----------------------------
                         !        ITERATION     4   !
                         ----------------------------
   Total Energy        :   -1898.218823445743 Eh
   Energy Change       :      -0.039133184484 Eh
   MAX-DP              :       0.136812743806
   RMS-DP              :       0.002789961064
   Actual Damping      :       0.0000
   Actual Level Shift  :       0.2500 Eh
   Int. Num. El.       :    95.74093235 (UP=   47.87046618 DN=   47.87046618)
   Exchange            :   -99.29408872
   Correlation         :    -4.27279792
   DIIS-Error          :       0.021620224155
   DIIS coefficients:
      0.16534  -0.12916   0.96382

==>> SHARK/AuxDens: NDens=1 Thresh =     2.500000e-11 TCut=    2.500000e-12 Lmax=2 LmaxAux=4
    -> Making Hermite density - ok     0.003 sec
    -> Making Aux-basis density - (lmax=2)
    -> L=0 0:    0.011 sec done=     31723 ( 93.3%) skipped=      2290 
    -> L=1 0:    0.174 sec done=     43164 ( 94.1%) skipped=      2712 
    -> L=1 1:    0.017 sec done=     16266 ( 98.6%) skipped=       230 
    -> L=2 0:    0.082 sec done=     21876 ( 87.2%) skipped=      3210 
    -> L=2 1:    0.017 sec done=     16258 ( 97.9%) skipped=       353 
    -> L=2 2:    0.005 sec done=      4970 ( 97.7%) skipped=       115 
    -> Aux basis density formed in    0.3 sec
    -> Solving linear equations - ok (   0.0 sec)
        Auxbasis Hermite Density:
        P|s>                     ...  0.000
        P|p>                     ...  0.000
        P|d>                     ...  0.000
        P|f>                     ...  0.000
        P|g>                     ...  0.000
        Building the Coulomb matrix: 
        J|ss>                          ... done (  0.1 sec) ndone=   224310 nskipped1=     4287 nskipped2=     3972
        J|ps>                          ... done (  0.0 sec) ndone=   280811 nskipped1=     7936 nskipped2=    10793
        J|pp>                          ... done (  0.1 sec) ndone=   115394 nskipped1=     1395 nskipped2=     3972
        J|ds>                          ... done (  0.1 sec) ndone=    81882 nskipped1=     7629 nskipped2=     3032
        J|dp>                          ... done (  0.0 sec) ndone=    60923 nskipped1=      217 nskipped2=     1205
        J|dd>                          ... done (  0.0 sec) ndone=     8369 nskipped1=       60 nskipped2=        0
        Coulomb matrix built in   0.3 sec

        Total time for Split-RI-J                ...    0.604 sec
          (0) Prelude                            ...    0.000 sec
          (1) Hermite density                    ...    0.000 sec
          (2) Aux basis density                  ...    0.000 sec (inner=  0.0)
          (3) Linear equation solution           ...    0.000 sec
          (4) J-Matrix construction              ...    0.292 sec (inner=  0.3)
        ---------------------------------------------------------

                         ----------------------------
                         !        ITERATION     5   !
                         ----------------------------
   Total Energy        :   -1898.224605104829 Eh
   Energy Change       :      -0.005781659086 Eh
   MAX-DP              :       0.077423737996
   RMS-DP              :       0.001996579107
   Actual Damping      :       0.0000
   Actual Level Shift  :       0.2500 Eh
   Int. Num. El.       :    95.73178572 (UP=   47.86589286 DN=   47.86589286)
   Exchange            :   -99.35621019
   Correlation         :    -4.27411670
   DIIS-Error          :       0.011868682692
   DIIS coefficients:
      0.02227  -0.08227   0.16950   0.89050

==>> SHARK/AuxDens: NDens=1 Thresh =     2.500000e-11 TCut=    2.500000e-12 Lmax=2 LmaxAux=4
    -> Making Hermite density - ok     0.003 sec
    -> Making Aux-basis density - (lmax=2)
    -> L=0 0:    0.011 sec done=     31714 ( 93.2%) skipped=      2299 
    -> L=1 0:    0.093 sec done=     42855 ( 93.4%) skipped=      3021 
    -> L=1 1:    0.097 sec done=     16218 ( 98.3%) skipped=       278 
    -> L=2 0:    0.012 sec done=     21618 ( 86.2%) skipped=      3468 
    -> L=2 1:    0.086 sec done=     16091 ( 96.9%) skipped=       520 
    -> L=2 2:    0.005 sec done=      4960 ( 97.5%) skipped=       125 
    -> Aux basis density formed in    0.3 sec
    -> Solving linear equations - ok (   0.0 sec)
        Auxbasis Hermite Density:
        P|s>                     ...  0.000
        P|p>                     ...  0.000
        P|d>                     ...  0.000
        P|f>                     ...  0.000
        P|g>                     ...  0.000
        Building the Coulomb matrix: 
        J|ss>                          ... done (  0.1 sec) ndone=   221717 nskipped1=     6676 nskipped2=     3768
        J|ps>                          ... done (  0.1 sec) ndone=   278088 nskipped1=    10662 nskipped2=    10082
        J|pp>                          ... done (  0.0 sec) ndone=   115392 nskipped1=     1495 nskipped2=     3994
        J|ds>                          ... done (  0.0 sec) ndone=    79958 nskipped1=     9988 nskipped2=     2319
        J|dp>                          ... done (  0.1 sec) ndone=    60988 nskipped1=      267 nskipped2=     1257
        J|dd>                          ... done (  0.0 sec) ndone=     8352 nskipped1=       78 nskipped2=        0
        Coulomb matrix built in   0.3 sec

        Total time for Split-RI-J                ...    0.607 sec
          (0) Prelude                            ...    0.000 sec
          (1) Hermite density                    ...    0.000 sec
          (2) Aux basis density                  ...    0.000 sec (inner=  0.0)
          (3) Linear equation solution           ...    0.000 sec
          (4) J-Matrix construction              ...    0.298 sec (inner=  0.3)
        ---------------------------------------------------------

                         ----------------------------
                         !        ITERATION     6   !
                         ----------------------------
   Total Energy        :   -1898.226987318536 Eh
   Energy Change       :      -0.002382213706 Eh
   MAX-DP              :       0.054618460950
   RMS-DP              :       0.001658110740
   Actual Damping      :       0.0000
   Actual Level Shift  :       0.2500 Eh
   Int. Num. El.       :    95.72558694 (UP=   47.86279347 DN=   47.86279347)
   Exchange            :   -99.36475928
   Correlation         :    -4.27389142
   DIIS-Error          :       0.011091324239
   DIIS coefficients:
     -0.01989   0.00287  -0.11790  -0.07301   1.20794

==>> SHARK/AuxDens: NDens=1 Thresh =     2.500000e-11 TCut=    2.500000e-12 Lmax=2 LmaxAux=4
    -> Making Hermite density - ok     0.004 sec
    -> Making Aux-basis density - (lmax=2)
    -> L=0 0:    0.081 sec done=     31420 ( 92.4%) skipped=      2593 
    -> L=1 0:    0.104 sec done=     42694 ( 93.1%) skipped=      3182 
    -> L=1 1:    0.017 sec done=     16117 ( 97.7%) skipped=       379 
    -> L=2 0:    0.082 sec done=     21516 ( 85.8%) skipped=      3570 
    -> L=2 1:    0.017 sec done=     16128 ( 97.1%) skipped=       483 
    -> L=2 2:    0.004 sec done=      4631 ( 91.1%) skipped=       454 
    -> Aux basis density formed in    0.3 sec
    -> Solving linear equations - ok (   0.0 sec)
        Auxbasis Hermite Density:
        P|s>                     ...  0.000
        P|p>                     ...  0.000
        P|d>                     ...  0.000
        P|f>                     ...  0.000
        P|g>                     ...  0.000
        Building the Coulomb matrix: 
        J|ss>                          ... done (  0.1 sec) ndone=   218967 nskipped1=     7958 nskipped2=     3028
        J|ps>                          ... done (  0.0 sec) ndone=   276263 nskipped1=    11749 nskipped2=     9298
        J|pp>                          ... done (  0.1 sec) ndone=   114661 nskipped1=     1920 nskipped2=     3870
        J|ds>                          ... done (  0.0 sec) ndone=    79241 nskipped1=    10426 nskipped2=     1892
        J|dp>                          ... done (  0.1 sec) ndone=    60597 nskipped1=      483 nskipped2=     1060
        J|dd>                          ... done (  0.0 sec) ndone=     8349 nskipped1=       80 nskipped2=        0
        Coulomb matrix built in   0.3 sec

        Total time for Split-RI-J                ...    0.596 sec
          (0) Prelude                            ...    0.000 sec
          (1) Hermite density                    ...    0.000 sec
          (2) Aux basis density                  ...    0.000 sec (inner=  0.0)
          (3) Linear equation solution           ...    0.000 sec
          (4) J-Matrix construction              ...    0.283 sec (inner=  0.3)
        ---------------------------------------------------------

                         ----------------------------
                         !        ITERATION     7   !
                         ----------------------------
   Total Energy        :   -1898.228803192035 Eh
   Energy Change       :      -0.001815873500 Eh
   MAX-DP              :       0.047724713484
   RMS-DP              :       0.001457537322
   Actual Damping      :       0.0000
   Actual Level Shift  :       0.2500 Eh
   Int. Num. El.       :    95.72075292 (UP=   47.86037646 DN=   47.86037646)
   Exchange            :   -99.37028282
   Correlation         :    -4.27373146
   DIIS-Error          :       0.010318626645
   DIIS coefficients:
      1.58078   0.00754   0.00480  -0.18638  -0.40674

==>> SHARK/AuxDens: NDens=1 Thresh =     2.500000e-11 TCut=    2.500000e-12 Lmax=2 LmaxAux=4
    -> Making Hermite density - ok     0.004 sec
    -> Making Aux-basis density - (lmax=2)
    -> L=0 0:    0.084 sec done=     31259 ( 91.9%) skipped=      2754 
    -> L=1 0:    0.103 sec done=     42280 ( 92.2%) skipped=      3596 
    -> L=1 1:    0.100 sec done=     16124 ( 97.7%) skipped=       372 
    -> L=2 0:    0.015 sec done=     21684 ( 86.4%) skipped=      3402 
    -> L=2 1:    0.088 sec done=     16128 ( 97.1%) skipped=       483 
    -> L=2 2:    0.005 sec done=      4643 ( 91.3%) skipped=       442 
    -> Aux basis density formed in    0.4 sec
    -> Solving linear equations - ok (   0.0 sec)
        Auxbasis Hermite Density:
        P|s>                     ... -0.000
        P|p>                     ... -0.000
        P|d>                     ... -0.000
        P|f>                     ... -0.000
        P|g>                     ... -0.000
        Building the Coulomb matrix: 
        J|ss>                          ... done (  0.1 sec) ndone=   219353 nskipped1=     8097 nskipped2=     3384
        J|ps>                          ... done (  0.0 sec) ndone=   275976 nskipped1=    12014 nskipped2=     9424
        J|pp>                          ... done (  0.1 sec) ndone=   114543 nskipped1=     2020 nskipped2=     3938
        J|ds>                          ... done (  0.0 sec) ndone=    78922 nskipped1=    10810 nskipped2=     1904
        J|dp>                          ... done (  0.1 sec) ndone=    60504 nskipped1=      572 nskipped2=     1192
        J|dd>                          ... done (  0.0 sec) ndone=     8343 nskipped1=       86 nskipped2=        0
        Coulomb matrix built in   0.3 sec

        Total time for Split-RI-J                ...    0.689 sec
          (0) Prelude                            ...    0.000 sec
          (1) Hermite density                    ...    0.000 sec
          (2) Aux basis density                  ...    0.000 sec (inner=  0.0)
          (3) Linear equation solution           ...    0.000 sec
          (4) J-Matrix construction              ...    0.288 sec (inner=  0.3)
        ---------------------------------------------------------

                         ----------------------------
                         !        ITERATION     8   !
                         ----------------------------
   Total Energy        :   -1898.230337548448 Eh
   Energy Change       :      -0.001534356413 Eh
   MAX-DP              :       0.042137928252
   RMS-DP              :       0.001355016243
   Actual Damping      :       0.0000
   Actual Level Shift  :       0.2500 Eh
   Int. Num. El.       :    95.71655628 (UP=   47.85827814 DN=   47.85827814)
   Exchange            :   -99.37029274
   Correlation         :    -4.27343439
   DIIS-Error          :       0.009537421014
   DIIS coefficients:
     -0.63708   2.17992   0.02776  -0.06036  -0.51023

==>> SHARK/AuxDens: NDens=1 Thresh =     2.500000e-11 TCut=    2.500000e-12 Lmax=2 LmaxAux=4
    -> Making Hermite density - ok     0.004 sec
    -> Making Aux-basis density - (lmax=2)
    -> L=0 0:    0.084 sec done=     31004 ( 91.2%) skipped=      3009 
    -> L=1 0:    0.110 sec done=     42172 ( 91.9%) skipped=      3704 
    -> L=1 1:    0.090 sec done=     16160 ( 98.0%) skipped=       336 
    -> L=2 0:    0.012 sec done=     21666 ( 86.4%) skipped=      3420 
    -> L=2 1:    0.097 sec done=     16135 ( 97.1%) skipped=       476 
    -> L=2 2:    0.004 sec done=      4644 ( 91.3%) skipped=       441 
    -> Aux basis density formed in    0.4 sec
    -> Solving linear equations - ok (   0.0 sec)
        Auxbasis Hermite Density:
        P|s>                     ... -0.000
        P|p>                     ... -0.000
        P|d>                     ... -0.000
        P|f>                     ... -0.000
        P|g>                     ... -0.000
        Building the Coulomb matrix: 
        J|ss>                          ... done (  0.1 sec) ndone=   217786 nskipped1=     8799 nskipped2=     3044
        J|ps>                          ... done (  0.0 sec) ndone=   275016 nskipped1=    12546 nskipped2=     9076
        J|pp>                          ... done (  0.1 sec) ndone=   114258 nskipped1=     2195 nskipped2=     3918
        J|ds>                          ... done (  0.1 sec) ndone=    78577 nskipped1=    11089 nskipped2=     1721
        J|dp>                          ... done (  0.0 sec) ndone=    60324 nskipped1=      673 nskipped2=     1134
        J|dd>                          ... done (  0.0 sec) ndone=     8344 nskipped1=       85 nskipped2=        0
        Coulomb matrix built in   0.3 sec

        Total time for Split-RI-J                ...    0.701 sec
          (0) Prelude                            ...    0.000 sec
          (1) Hermite density                    ...    0.000 sec
          (2) Aux basis density                  ...    0.000 sec (inner=  0.0)
          (3) Linear equation solution           ...    0.000 sec
          (4) J-Matrix construction              ...    0.298 sec (inner=  0.3)
        ---------------------------------------------------------

                         ----------------------------
                         !        ITERATION     9   !
                         ----------------------------
   Total Energy        :   -1898.231720945343 Eh
   Energy Change       :      -0.001383396895 Eh
   MAX-DP              :       0.041222904878
   RMS-DP              :       0.001204064966
   Actual Damping      :       0.0000
   Actual Level Shift  :       0.2500 Eh
   Int. Num. El.       :    95.71291845 (UP=   47.85645923 DN=   47.85645923)
   Exchange            :   -99.37180701
   Correlation         :    -4.27322447
   DIIS-Error          :       0.008686801759
   DIIS coefficients:
     -0.89702  -0.38769   2.30866   0.08670  -0.11065

==>> SHARK/AuxDens: NDens=1 Thresh =     2.500000e-11 TCut=    2.500000e-12 Lmax=2 LmaxAux=4
    -> Making Hermite density - ok     0.003 sec
    -> Making Aux-basis density - (lmax=2)
    -> L=0 0:    0.010 sec done=     30854 ( 90.7%) skipped=      3159 
    -> L=1 0:    0.093 sec done=     42158 ( 91.9%) skipped=      3718 
    -> L=1 1:    0.087 sec done=     16159 ( 98.0%) skipped=       337 
    -> L=2 0:    0.012 sec done=     21631 ( 86.2%) skipped=      3455 
    -> L=2 1:    0.086 sec done=     16136 ( 97.1%) skipped=       475 
    -> L=2 2:    0.004 sec done=      4637 ( 91.2%) skipped=       448 
    -> Aux basis density formed in    0.3 sec
    -> Solving linear equations - ok (   0.0 sec)
        Auxbasis Hermite Density:
        P|s>                     ... -0.000
        P|p>                     ... -0.000
        P|d>                     ... -0.000
        P|f>                     ... -0.000
        P|g>                     ... -0.000
        Building the Coulomb matrix: 
        J|ss>                          ... done (  0.1 sec) ndone=   217308 nskipped1=     9133 nskipped2=     3076
        J|ps>                          ... done (  0.1 sec) ndone=   274740 nskipped1=    12768 nskipped2=     9062
        J|pp>                          ... done (  0.0 sec) ndone=   113958 nskipped1=     2255 nskipped2=     3838
        J|ds>                          ... done (  0.1 sec) ndone=    78333 nskipped1=    11226 nskipped2=     1596
        J|dp>                          ... done (  0.0 sec) ndone=    60134 nskipped1=      767 nskipped2=     1116
        J|dd>                          ... done (  0.1 sec) ndone=     8341 nskipped1=       88 nskipped2=        0
        Coulomb matrix built in   0.4 sec

        Total time for Split-RI-J                ...    0.689 sec
          (0) Prelude                            ...    0.000 sec
          (1) Hermite density                    ...    0.000 sec
          (2) Aux basis density                  ...    0.000 sec (inner=  0.0)
          (3) Linear equation solution           ...    0.000 sec
          (4) J-Matrix construction              ...    0.390 sec (inner=  0.4)
        ---------------------------------------------------------

                         ----------------------------
                         !        ITERATION    10   !
                         ----------------------------
   Total Energy        :   -1898.232889099134 Eh
   Energy Change       :      -0.001168153791 Eh
   MAX-DP              :       0.037778103950
   RMS-DP              :       0.001019534139
   Actual Damping      :       0.0000
   Actual Level Shift  :       0.2500 Eh
   Int. Num. El.       :    95.70984584 (UP=   47.85492292 DN=   47.85492292)
   Exchange            :   -99.37148859
   Correlation         :    -4.27300487
   DIIS-Error          :       0.007817960741
   DIIS coefficients:
     -0.39159  -0.39409   0.47784   1.42567  -0.11783

==>> SHARK/AuxDens: NDens=1 Thresh =     2.500000e-11 TCut=    2.500000e-12 Lmax=2 LmaxAux=4
    -> Making Hermite density - ok     0.006 sec
    -> Making Aux-basis density - (lmax=2)
    -> L=0 0:    0.097 sec done=     30665 ( 90.2%) skipped=      3348 
    -> L=1 0:    0.113 sec done=     42236 ( 92.1%) skipped=      3640 
    -> L=1 1:    0.088 sec done=     16151 ( 97.9%) skipped=       345 
    -> L=2 0:    0.012 sec done=     21463 ( 85.6%) skipped=      3623 
    -> L=2 1:    0.097 sec done=     16121 ( 97.1%) skipped=       490 
    -> L=2 2:    0.004 sec done=      4594 ( 90.3%) skipped=       491 
    -> Aux basis density formed in    0.4 sec
    -> Solving linear equations - ok (   0.0 sec)
        Auxbasis Hermite Density:
        P|s>                     ... -0.000
        P|p>                     ... -0.000
        P|d>                     ... -0.000
        P|f>                     ... -0.000
        P|g>                     ... -0.000
        Building the Coulomb matrix: 
        J|ss>                          ... done (  0.0 sec) ndone=   216068 nskipped1=     9351 nskipped2=     2602
        J|ps>                          ... done (  0.1 sec) ndone=   273370 nskipped1=    13100 nskipped2=     8682
        J|pp>                          ... done (  0.0 sec) ndone=   113561 nskipped1=     2250 nskipped2=     3690
        J|ds>                          ... done (  0.1 sec) ndone=    77967 nskipped1=    11392 nskipped2=     1364
        J|dp>                          ... done (  0.0 sec) ndone=    59949 nskipped1=      693 nskipped2=      902
        J|dd>                          ... done (  0.0 sec) ndone=     8343 nskipped1=       86 nskipped2=        0
        Coulomb matrix built in   0.2 sec

        Total time for Split-RI-J                ...    0.716 sec
          (0) Prelude                            ...    0.000 sec
          (1) Hermite density                    ...    0.000 sec
          (2) Aux basis density                  ...    0.000 sec (inner=  0.0)
          (3) Linear equation solution           ...    0.000 sec
          (4) J-Matrix construction              ...    0.215 sec (inner=  0.2)
        ---------------------------------------------------------

                         ----------------------------
                         !        ITERATION    11   !
                         ----------------------------
   Total Energy        :   -1898.233814199587 Eh
   Energy Change       :      -0.000925100453 Eh
   MAX-DP              :       0.038423639614
   RMS-DP              :       0.000981360354
   Actual Damping      :       0.0000
   Actual Level Shift  :       0.2500 Eh
   Int. Num. El.       :    95.70735431 (UP=   47.85367715 DN=   47.85367715)
   Exchange            :   -99.37144134
   Correlation         :    -4.27283849
   DIIS-Error          :       0.006990761380
   DIIS coefficients:
     -0.43586  -0.50460  -0.53833   1.12881   1.34997

==>> SHARK/AuxDens: NDens=1 Thresh =     2.500000e-11 TCut=    2.500000e-12 Lmax=2 LmaxAux=4
    -> Making Hermite density - ok     0.003 sec
    -> Making Aux-basis density - (lmax=2)
    -> L=0 0:    0.091 sec done=     30580 ( 89.9%) skipped=      3433 
    -> L=1 0:    0.022 sec done=     42154 ( 91.9%) skipped=      3722 
    -> L=1 1:    0.086 sec done=     16158 ( 98.0%) skipped=       338 
    -> L=2 0:    0.012 sec done=     21535 ( 85.8%) skipped=      3551 
    -> L=2 1:    0.085 sec done=     16128 ( 97.1%) skipped=       483 
    -> L=2 2:    0.005 sec done=      4698 ( 92.4%) skipped=       387 
    -> Aux basis density formed in    0.3 sec
    -> Solving linear equations - ok (   0.0 sec)
        Auxbasis Hermite Density:
        P|s>                     ...  0.000
        P|p>                     ...  0.000
        P|d>                     ...  0.000
        P|f>                     ...  0.000
        P|g>                     ...  0.000
        Building the Coulomb matrix: 
        J|ss>                          ... done (  0.1 sec) ndone=   216278 nskipped1=     9301 nskipped2=     2754
        J|ps>                          ... done (  0.0 sec) ndone=   273669 nskipped1=    13121 nskipped2=     8794
        J|pp>                          ... done (  0.0 sec) ndone=   113567 nskipped1=     2385 nskipped2=     3814
        J|ds>                          ... done (  0.1 sec) ndone=    78025 nskipped1=    11414 nskipped2=     1491
        J|dp>                          ... done (  0.1 sec) ndone=    59970 nskipped1=      799 nskipped2=     1031
        J|dd>                          ... done (  0.0 sec) ndone=     8341 nskipped1=       88 nskipped2=        0
        Coulomb matrix built in   0.3 sec

        Total time for Split-RI-J                ...    0.596 sec
          (0) Prelude                            ...    0.000 sec
          (1) Hermite density                    ...    0.000 sec
          (2) Aux basis density                  ...    0.000 sec (inner=  0.0)
          (3) Linear equation solution           ...    0.000 sec
          (4) J-Matrix construction              ...    0.292 sec (inner=  0.3)
        ---------------------------------------------------------

                         ----------------------------
                         !        ITERATION    12   !
                         ----------------------------
   Total Energy        :   -1898.234624308677 Eh
   Energy Change       :      -0.000810109090 Eh
   MAX-DP              :       0.034539289025
   RMS-DP              :       0.000829559129
   Actual Damping      :       0.0000
   Actual Level Shift  :       0.2500 Eh
   Int. Num. El.       :    95.70501862 (UP=   47.85250931 DN=   47.85250931)
   Exchange            :   -99.37375283
   Correlation         :    -4.27274142
   DIIS-Error          :       0.006097059115
   DIIS coefficients:
      1.54605  -0.31106  -0.81247  -0.17583   0.75331

==>> SHARK/AuxDens: NDens=1 Thresh =     2.500000e-11 TCut=    2.500000e-12 Lmax=2 LmaxAux=4
    -> Making Hermite density - ok     0.083 sec
    -> Making Aux-basis density - (lmax=2)
    -> L=0 0:    0.010 sec done=     30480 ( 89.6%) skipped=      3533 
    -> L=1 0:    0.104 sec done=     41872 ( 91.3%) skipped=      4004 
    -> L=1 1:    0.099 sec done=     16132 ( 97.8%) skipped=       364 
    -> L=2 0:    0.092 sec done=     21325 ( 85.0%) skipped=      3761 
    -> L=2 1:    0.098 sec done=     16100 ( 96.9%) skipped=       511 
    -> L=2 2:    0.005 sec done=      4586 ( 90.2%) skipped=       499 
    -> Aux basis density formed in    0.4 sec
    -> Solving linear equations - ok (   0.0 sec)
        Auxbasis Hermite Density:
        P|s>                     ... -0.000
        P|p>                     ... -0.000
        P|d>                     ... -0.000
        P|f>                     ... -0.000
        P|g>                     ... -0.000
        Building the Coulomb matrix: 
        J|ss>                          ... done (  0.1 sec) ndone=   215438 nskipped1=    10095 nskipped2=     2580
        J|ps>                          ... done (  0.1 sec) ndone=   273076 nskipped1=    13762 nskipped2=     8680
        J|pp>                          ... done (  0.0 sec) ndone=   113248 nskipped1=     2550 nskipped2=     3698
        J|ds>                          ... done (  0.1 sec) ndone=    77517 nskipped1=    11974 nskipped2=     1250
        J|dp>                          ... done (  0.0 sec) ndone=    59578 nskipped1=      943 nskipped2=      803
        J|dd>                          ... done (  0.1 sec) ndone=     8330 nskipped1=       99 nskipped2=        0
        Coulomb matrix built in   0.4 sec

        Total time for Split-RI-J                ...    0.884 sec
          (0) Prelude                            ...    0.000 sec
          (1) Hermite density                    ...    0.000 sec
          (2) Aux basis density                  ...    0.000 sec (inner=  0.0)
          (3) Linear equation solution           ...    0.000 sec
          (4) J-Matrix construction              ...    0.390 sec (inner=  0.4)
        ---------------------------------------------------------

                         ----------------------------
                         !        ITERATION    13   !
                         ----------------------------
   Total Energy        :   -1898.235244318661 Eh
   Energy Change       :      -0.000620009984 Eh
   MAX-DP              :       0.033029869371
   RMS-DP              :       0.000755217910
   Actual Damping      :       0.0000
   Actual Level Shift  :       0.2500 Eh
   Int. Num. El.       :    95.70310889 (UP=   47.85155444 DN=   47.85155444)
   Exchange            :   -99.37187346
   Correlation         :    -4.27256114
   DIIS-Error          :       0.005286616564
   DIIS coefficients:
     -0.04052   2.39522  -0.43444  -0.72261  -0.19766

==>> SHARK/AuxDens: NDens=1 Thresh =     2.500000e-11 TCut=    2.500000e-12 Lmax=2 LmaxAux=4
    -> Making Hermite density - ok     0.004 sec
    -> Making Aux-basis density - (lmax=2)
    -> L=0 0:    0.092 sec done=     30364 ( 89.3%) skipped=      3649 
    -> L=1 0:    0.104 sec done=     41974 ( 91.5%) skipped=      3902 
    -> L=1 1:    0.098 sec done=     16112 ( 97.7%) skipped=       384 
    -> L=2 0:    0.092 sec done=     21296 ( 84.9%) skipped=      3790 
    -> L=2 1:    0.017 sec done=     16111 ( 97.0%) skipped=       500 
    -> L=2 2:    0.085 sec done=      4631 ( 91.1%) skipped=       454 
    -> Aux basis density formed in    0.5 sec
    -> Solving linear equations - ok (   0.0 sec)
        Auxbasis Hermite Density:
        P|s>                     ...  0.000
        P|p>                     ...  0.000
        P|d>                     ...  0.000
        P|f>                     ...  0.000
        P|g>                     ...  0.000
        Building the Coulomb matrix: 
[...]
Angular grid pruning method      GridPruning ... 4 (adaptive)
Weight generation scheme         WeightScheme... Becke
Basis function cutoff            BFCut       ... 1.0000e-11
Integration weight cutoff        WCut        ... 1.0000e-14
Angular grids for H and He will be reduced by one unit
Partially contracted basis set               ... on
Rotationally invariant grid construction     ... off

Total number of grid points                  ...    14724
Total number of batches                      ...      233
Average number of points per batch           ...       63
Average number of grid points per atom       ...     2103
UseSFitting                                  ... on

GRIDX 3
-------
General Integration Accuracy     IntAcc      ... 4.338
Radial Grid Type                 RadialGrid  ... OptM3 with GC (2021)
Angular Grid (max. ang.)         AngularGrid ... 3 (Lebedev-194)
Angular grid pruning method      GridPruning ... 4 (adaptive)
Weight generation scheme         WeightScheme... Becke
Basis function cutoff            BFCut       ... 1.0000e-11
Integration weight cutoff        WCut        ... 1.0000e-14
Angular grids for H and He will be reduced by one unit
Partially contracted basis set               ... on
Rotationally invariant grid construction     ... off

Total number of grid points                  ...    33725
Total number of batches                      ...      530
Average number of points per batch           ...       63
Average number of grid points per atom       ...     4818
UseSFitting                                  ... on

Time for X-Grid setup             =    0.381 sec


--------------------
CPCM SOLVATION MODEL
--------------------
CPCM parameters:
  Epsilon                                         ...      69.0000
  Refrac                                          ...       1.3400
  Rsolv                                           ...       1.3000
  Surface type                                    ... GAUSSIAN VDW
  Epsilon function type                           ...         CPCM
Radii:
 Radius for O  used is    3.4469 Bohr (=   1.8240 Ang.)
 Radius for S  used is    4.0818 Bohr (=   2.1600 Ang.)
 Radius for K  used is    6.2361 Bohr (=   3.3000 Ang.)
Calculating surface                               ...        done! (  0.0s)
GEPOL surface points                              ...          479
GEPOL Volume                                      ...    2371.0316
GEPOL Surface-area                                ...    1065.9804
Calculating surface distance matrix               ...        done! (  0.0s)
Performing Cholesky decomposition & store         ...        done! (  0.0s)
Overall time for CPCM initialization              ...                 0.0s
--------------
SCF ITERATIONS
--------------
ITER       Energy         Delta-E        Max-DP      RMS-DP      [F,P]     Damp
               ***  Starting incremental Fock matrix formation  ***
                      *** Initiating the SOSCF procedure ***
                      *** Re-Reading the Fockian *** 
                      *** Removing any level shift *** 
ITER      Energy       Delta-E        Grad      Rot      Max-DP    RMS-DP
  0  -1898.35639502 -1898.3563950164  0.001501  0.001501  0.005082  0.000148
               *** Restarting incremental Fock matrix formation ***
  1  -1898.35649715  -0.0001021374  0.000470  0.001156  0.009542  0.000127
  2  -1898.35650746  -0.0000103062  0.000087  0.000265  0.000903  0.000025
  3  -1898.35650724   0.0000002213  0.000172  0.000092  0.000466  0.000012
  4  -1898.35650783  -0.0000005918  0.000019  0.000131  0.000290  0.000008
  5  -1898.35650784  -0.0000000095  0.000027  0.000131  0.000280  0.000007
  6  -1898.35650786  -0.0000000168  0.000008  0.000182  0.000308  0.000008
  7  -1898.35650786  -0.0000000043  0.000005  0.000179  0.000300  0.000006
                  ***Gradient check signals convergence***
              ***Rediagonalizing the Fockian in SOSCF/NRSCF***

               *****************************************************
               *                     SUCCESS                       *
               *           SCF CONVERGED AFTER   8 CYCLES          *
               *****************************************************

Old exchange energy                            =    -24.977318371 Eh
New exchange energy                            =    -24.977352721 Eh
Exchange energy change after final integration =     -0.000034350 Eh
Total energy after final integration           =  -1898.356542209 Eh
Final COS-X integration done in                =     3.579 sec
Total Energy       :        -1898.35654221 Eh          -51656.90770 eV
  Last Energy change         ...    2.1032e-09  Tolerance :   1.0000e-08
  Last MAX-Density change    ...    5.7732e-15  Tolerance :   1.0000e-07
             **** THE GBW FILE WAS UPDATED (K2SO4_DFT.gbw) ****
             **** DENSITY K2SO4_DFT.scfp WAS UPDATED ****
             **** ENERGY FILE WAS UPDATED (K2SO4_DFT.en.tmp) ****
             **** THE GBW FILE WAS UPDATED (K2SO4_DFT.gbw) ****
             **** DENSITY K2SO4_DFT.scfp WAS UPDATED ****
Total SCF time: 0 days 0 hours 0 min 21 sec 

Maximum memory used throughout the entire SCF-calculation: 62.8 MB

-------------------------   --------------------
FINAL SINGLE POINT ENERGY     -1898.356542209024
-------------------------   --------------------

------------------------------------------------------------------------------
                         ORCA SCF GRADIENT CALCULATION
------------------------------------------------------------------------------

 ... reading COSX grid (gridx3)
Gradient of the Kohn-Sham DFT energy:
Kohn-Sham wavefunction type      ... RKS
Hartree-Fock exchange scaling    ...    0.200
Number of operators              ...    1
Number of atoms                  ...    7
Basis set dimensions             ...  122
Integral neglect threshold       ... 2.5e-11
Integral primitive cutoff        ... 2.5e-12
SHARK Integral package           ... ON

Nuc. rep. gradient       (SHARK) ... done (  0.0 sec)
HCore & Overlap gradient (SHARK) ... done (  0.1 sec)
RI-J gradient            (SHARK) ... done (  0.5 sec)
COSX-gradient                    ... done (  4.4 sec)
Exchange-correlation gradient    ... done

------------------
CARTESIAN GRADIENT
------------------

   1   O   :    0.000049904    0.004437065   -0.002496246
   2   S   :    0.004166251    0.002328193   -0.000990083
   3   O   :   -0.005277848    0.005620028   -0.002721339
   4   O   :   -0.000036638   -0.003882474    0.000191418
   5   O   :   -0.001536602   -0.002999179    0.001831859
   6   K   :    0.005902350   -0.014176062    0.007542242
   7   K   :   -0.003680746    0.008039993   -0.002696114

Difference to translation invariance:
           :   -0.0004133283   -0.0006324368    0.0006617368

Difference to rotation invariance:
           :    0.0069616972   -0.0011851711   -0.0079083783

Norm of the cartesian gradient     ...    0.0229017806
RMS gradient                       ...    0.0049975783
MAX gradient                       ...    0.0141760618

-------
TIMINGS
-------

Total SCF gradient time            ...        6.985 sec

One electron gradient       ....       0.052 sec  (  0.7%)
RI-J Coulomb gradient       ....       0.509 sec  (  7.3%)
COSX gradient               ....       4.372 sec  ( 62.6%)
XC gradient                 ....       1.578 sec  ( 22.6%)
CPCM gradient               ....       0.131 sec  (  1.9%)
   A-Matrix (El+Nuc)        ....       0.009 sec  (  0.1%)
   Potential                ....       0.122 sec  (  1.7%)

Maximum memory used throughout the entire SCFGRAD-calculation: 50.6 MB
------------------------------------------------------------------------------
                         ORCA GEOMETRY RELAXATION STEP
------------------------------------------------------------------------------

Reading the OPT-File                    .... done
Getting information on internals        .... done
Copying old internal coords+grads       .... done
Making the new internal coordinates     .... (new redundants).... done
Validating the new internal coordinates .... (new redundants).... done
Calculating the B-matrix                .... done
Calculating the G,G- and P matrices     .... done
Transforming gradient to internals      .... done
Projecting the internal gradient        .... done
Number of atoms                         ....   7
Number of internal coordinates          ....  70
Current Energy                          .... -1898.356542209 Eh
Current gradient norm                   ....     0.022901781 Eh/bohr
Maximum allowed component of the step   ....  0.300
Current trust radius                    ....  0.300
Resetting Hessian after 50 BFGS Update Steps....
Build internal Hessian                  .... (Almloef) done
Updating Hessian with the last 5 steps  .... done
Forming the augmented Hessian           .... done
Diagonalizing the augmented Hessian     .... done
Last element of RFO vector              ....  0.754119889
Lowest eigenvalues of augmented Hessian:
 -0.009732525  0.003404201  0.012397197  0.017452017  0.020846045
Length of the computed step             ....  0.870865211
Warning: the length of the step is outside the trust region - taking restricted step instead
The input lambda is                     ....    -0.009733
   iter:   1  x=   -0.015197  g=  122.318355 f(x)=     0.668406
   iter:   2  x=   -0.022026  g=   40.602634 f(x)=     0.277265
   iter:   3  x=   -0.028775  g=   15.437810 f(x)=     0.104193
   iter:   4  x=   -0.032885  g=    7.527884 f(x)=     0.030937
   iter:   5  x=   -0.033861  g=    5.229349 f(x)=     0.005107
   iter:   6  x=   -0.033903  g=    4.825817 f(x)=     0.000201
   iter:   7  x=   -0.033903  g=    4.809584 f(x)=     0.000000
   iter:   8  x=   -0.033903  g=    4.809557 f(x)=     0.000000
   iter:   9  x=   -0.033903  g=    4.809557 f(x)=    -0.000000
The output lambda is                    ....    -0.033903 (9 iterations)
The final length of the internal step   ....  0.300000000
Converting the step to cartesian space:
 Initial RMS(Int)=    0.0358568583
Transforming coordinates:
 Iter   0:  RMS(Cart)=    0.0374772314 RMS(Int)=    0.0358776196
 Iter   1:  RMS(Cart)=    0.0000514751 RMS(Int)=    0.0000378744
 Iter   2:  RMS(Cart)=    0.0000002042 RMS(Int)=    0.0000001683
 Iter   3:  RMS(Cart)=    0.0000000013 RMS(Int)=    0.0000000008
done
Storing new coordinates                 .... done

                                .--------------------.
          ----------------------|Geometry convergence|-------------------------
          Item                value                   Tolerance       Converged
          ---------------------------------------------------------------------
          Energy change      -0.0000323761            0.0000050000      NO
          RMS gradient        0.0014341453            0.0001000000      NO
          MAX gradient        0.0068577593            0.0003000000      NO
          RMS step            0.0358568583            0.0020000000      NO
          MAX step            0.1692104001            0.0040000000      NO
          ........................................................
          Max(Bonds)      0.0895      Max(Angles)    0.74
          Max(Dihed)        0.52      Max(Improp)    0.00
          ---------------------------------------------------------------------

The optimization has not yet converged - more geometry cycles are needed


    ---------------------------------------------------------------------------
                         Redundant Internal Coordinates
                            (Angstroem and degrees)

        Definition                    Value    dE/dq     Step     New-Value
    ----------------------------------------------------------------------------
     1. B(S   1,O   0)                1.5164 -0.000199  0.0008    1.5173   
     2. B(O   2,S   1)                1.5139  0.000119 -0.0004    1.5135   
     3. B(O   3,S   1)                1.5234  0.000291  0.0001    1.5235   
     4. B(O   4,S   1)                1.5230 -0.000025  0.0001    1.5231   
     5. B(K   5,S   1)                4.6042 -0.005473  0.0856    4.6898   
     6. B(K   5,O   2)                3.8256 -0.006858  0.0802    3.9058   
     7. B(K   5,O   0)                4.0743 -0.005201  0.0895    4.1638   
     8. B(K   6,O   4)                2.9787 -0.002961  0.0284    3.0071   
     9. B(K   6,O   3)                2.8846 -0.003379  0.0334    2.9180   
    10. B(K   6,S   1)                3.5283 -0.003414  0.0337    3.5620   
    11. A(S   1,O   0,K   5)          100.73 -0.000182    0.02    100.74   
    12. A(O   2,S   1,K   6)          126.45  0.000806   -0.02    126.42   
    13. A(O   0,S   1,K   5)           60.39 -0.000021    0.33     60.73   
    14. A(O   4,S   1,K   6)           56.73  0.000043   -0.07     56.66   
    15. A(O   2,S   1,O   4)          109.94  0.000702   -0.26    109.68   
    16. A(O   3,S   1,K   5)          131.62 -0.000012   -0.05    131.58   
    17. A(O   0,S   1,O   4)          108.68 -0.000449    0.15    108.83   
    18. A(O   2,S   1,K   5)           50.56 -0.000603   -0.06     50.50   
    19. A(O   3,S   1,O   4)          109.87 -0.000031    0.04    109.91   
    20. A(O   0,S   1,O   2)          110.36 -0.000613    0.27    110.63   
    21. A(O   2,S   1,O   3)          109.44  0.000537   -0.16    109.29   
    22. A(O   4,S   1,K   5)          118.33  0.000102   -0.03    118.30   
    23. A(O   3,S   1,K   6)           53.14 -0.000080    0.11     53.25   
    24. A(O   0,S   1,O   3)          108.54 -0.000165   -0.04    108.50   
    25. A(O   0,S   1,K   6)          123.14 -0.000194   -0.24    122.90   
    26. A(S   1,O   2,K   5)          111.64  0.000444    0.46    112.10   
    27. A(S   1,O   3,K   6)          101.87 -0.000229    0.16    102.03   
    28. A(S   1,O   4,K   6)           97.96 -0.000301    0.36     98.32   
    29. A(S   1,K   5,O   2)           17.80  0.000159   -0.40     17.40   
    30. A(O   0,K   5,O   2)           36.54  0.000361   -0.74     35.79   
    31. A(O   0,K   5,S   1)           18.88  0.000203   -0.35     18.53   
    32. A(O   3,K   6,O   4)           50.30  0.000568   -0.57     49.74   
    33. A(S   1,K   6,O   4)           25.31  0.000258   -0.29     25.02   
    34. A(S   1,K   6,O   3)           25.00  0.000308   -0.28     24.72   
    35. D(O   3,S   1,O   0,K   5)    127.97  0.000062   -0.04    127.93   
    36. D(O   4,S   1,O   0,K   5)   -112.58 -0.000329    0.07   -112.51   
    37. D(K   6,S   1,O   0,K   5)   -174.49 -0.000122    0.08   -174.41   
    38. D(O   2,S   1,O   0,K   5)      8.04 -0.000125    0.01      8.05   
    39. D(K   5,O   2,S   1,O   4)    110.80 -0.000434    0.14    110.95   
    40. D(K   5,O   2,S   1,O   0)     -9.06  0.000063   -0.05     -9.11   
    41. D(K   5,O   2,S   1,K   6)    173.57  0.000094   -0.11    173.46   
    42. D(K   5,O   2,S   1,O   3)   -128.44  0.000308   -0.07   -128.51   
    43. D(K   6,O   3,S   1,K   5)   -175.54 -0.000294    0.13   -175.41   
    44. D(K   6,O   3,S   1,O   4)     -0.72  0.000530   -0.46     -1.18   
    45. D(K   6,O   3,S   1,O   2)   -121.52 -0.000656   -0.07   -121.59   
    46. D(K   6,O   3,S   1,O   0)    117.99 -0.000130   -0.28    117.70   
    47. D(K   6,O   4,S   1,O   2)    121.19  0.000582    0.11    121.30   
    48. D(K   6,O   4,S   1,O   0)   -117.93 -0.000022    0.38   -117.56   
    49. D(K   6,O   4,S   1,O   3)      0.69 -0.000508    0.44      1.13   
    50. D(K   6,O   4,S   1,K   5)    176.29  0.000186   -0.06    176.22   
    51. D(O   0,K   5,O   2,S   1)      5.29 -0.000005   -0.00      5.29   
    52. D(O   2,K   5,S   1,O   3)     81.12  0.000280   -0.27     80.85   
    53. D(O   2,K   5,S   1,O   0)    170.22  0.000027   -0.00    170.22   
    54. D(O   0,K   5,S   1,O   4)     96.44 -0.000622    0.37     96.80   
    55. D(O   0,K   5,S   1,O   3)    -89.10  0.000253   -0.27    -89.37   
    56. D(O   2,K   5,S   1,O   4)    -93.34 -0.000594    0.37    -92.97   
    57. D(O   0,K   5,S   1,O   2)   -170.22 -0.000027    0.00   -170.22   
    58. D(O   2,K   5,O   0,S   1)     -5.00  0.000013    0.02     -4.98   
    59. D(O   4,K   6,S   1,O   3)   -179.19 -0.000596    0.52   -178.67   
    60. D(O   4,K   6,S   1,O   2)    -91.29 -0.000496    0.40    -90.89   
    61. D(O   4,K   6,S   1,O   0)     91.66 -0.000457    0.31     91.97   
    62. D(O   3,K   6,S   1,O   4)    179.19  0.000596   -0.52    178.67   
    63. D(O   3,K   6,S   1,O   2)     87.91  0.000100   -0.12     87.78   
    64. D(O   4,K   6,O   3,S   1)      0.45 -0.000331    0.29      0.74   
    65. D(O   3,K   6,S   1,O   0)    -89.15  0.000139   -0.21    -89.36   
    66. D(O   4,K   6,K   5,O   2)   -107.11  0.000090   -0.11   -107.22   
    67. D(O   4,K   6,K   5,O   0)     95.50 -0.000360    0.34     95.85   
    68. D(O   3,K   6,K   5,O   2)     80.12  0.000105   -0.33     79.80   
    69. D(O   3,K   6,K   5,O   0)    -77.26 -0.000345    0.12    -77.14   
    70. D(O   3,K   6,O   4,S   1)     -0.44  0.000326   -0.29     -0.73   
    ----------------------------------------------------------------------------




    ----------------------------------------------------------------------------
                                  WARNING !!!
       The optimization did not converge but reached the maximum number of
       optimization cycles.
       Please check your results very carefully.
    ----------------------------------------------------------------------------



                            ***************************************
                            *     ORCA property calculations      *
                            ***************************************

                                    ---------------------
                                    Active property flags
                                    ---------------------
   (+) Dipole Moment


------------------------------------------------------------------------------
                       ORCA ELECTRIC PROPERTIES CALCULATION
------------------------------------------------------------------------------

Dipole Moment Calculation                       ... on
Quadrupole Moment Calculation                   ... off
Polarizability Calculation                      ... off
GBWName                                         ... K2SO4_DFT.gbw
Electron density                                ... K2SO4_DFT.scfp
The origin for moment calculation is the CENTER OF MASS  = ( 4.427592,  0.061636 -0.176614)

-------------
DIPOLE MOMENT
-------------
                                X             Y             Z
Electronic contribution:      4.79221     -13.62782       6.67402
Nuclear contribution   :      0.07315      -0.54002       0.41227
                        -----------------------------------------
Total Dipole Moment    :      4.86536     -14.16784       7.08628
                        -----------------------------------------
Magnitude (a.u.)       :     16.57151
Magnitude (Debye)      :     42.12143



--------------------
Rotational spectrum 
--------------------
 
Rotational constants in cm-1:     0.166257     0.011710     0.011694 
Rotational constants in MHz :  4984.255808   351.049467   350.571930 

 Dipole components along the rotational axes: 
x,y,z [a.u.] :    16.498846     1.546001     0.113424 
x,y,z [Debye]:    41.936734     3.929622     0.288302 

 

Timings for individual modules:

Sum of individual times         ...     4988.032 sec (=  83.134 min)
GTO integral calculation        ...       18.582 sec (=   0.310 min)   0.4 %
SCF iterations                  ...     4225.686 sec (=  70.428 min)  84.7 %
SCF Gradient evaluation         ...      740.481 sec (=  12.341 min)  14.8 %
Geometry relaxation             ...        3.283 sec (=   0.055 min)   0.1 %
                             ****ORCA TERMINATED NORMALLY****
TOTAL RUN TIME: 0 days 1 hours 23 minutes 23 seconds 678 msec
