
                                 *****************
                                 * O   R   C   A *
                                 *****************

                                            #,                                       
                                            ###                                      
                                            ####                                     
                                            #####                                    
                                            ######                                   
                                           ########,                                 
                                     ,,################,,,,,                         
                               ,,#################################,,                 
                          ,,##########################################,,             
                       ,#########################################, ''#####,          
                    ,#############################################,,   '####,        
                  ,##################################################,,,,####,       
                ,###########''''           ''''###############################       
              ,#####''   ,,,,##########,,,,          '''####'''          '####       
            ,##' ,,,,###########################,,,                        '##       
           ' ,,###''''                  '''############,,,                           
         ,,##''                                '''############,,,,        ,,,,,,###''
      ,#''                                            '''#######################'''  
     '                                                          ''''####''''         
             ,#######,   #######,   ,#######,      ##                                
            ,#'     '#,  ##    ##  ,#'     '#,    #''#        ######   ,####,        
            ##       ##  ##   ,#'  ##            #'  '#       #        #'  '#        
            ##       ##  #######   ##           ,######,      #####,   #    #        
            '#,     ,#'  ##    ##  '#,     ,#' ,#      #,         ##   #,  ,#        
             '#######'   ##     ##  '#######'  #'      '#     #####' # '####'        



                  #######################################################
                  #                        -***-                        #
                  #          Department of theory and spectroscopy      #
                  #    Directorship and core code : Frank Neese         #
                  #        Max Planck Institute fuer Kohlenforschung    #
                  #                Kaiser Wilhelm Platz 1               #
                  #                 D-45470 Muelheim/Ruhr               #
                  #                      Germany                        #
                  #                                                     #
                  #                  All rights reserved                #
                  #                        -***-                        #
                  #######################################################


                         Program Version 5.0.4 -  RELEASE  -


 With contributions from (in alphabetic order):
   Daniel Aravena         : Magnetic Suceptibility
   Michael Atanasov       : Ab Initio Ligand Field Theory (pilot matlab implementation)
   Alexander A. Auer      : GIAO ZORA, VPT2 properties, NMR spectrum
   Ute Becker             : Parallelization
   Giovanni Bistoni       : ED, misc. LED, open-shell LED, HFLD
   Martin Brehm           : Molecular dynamics
   Dmytro Bykov           : SCF Hessian
   Vijay G. Chilkuri      : MRCI spin determinant printing, contributions to CSF-ICE
   Dipayan Datta          : RHF DLPNO-CCSD density
   Achintya Kumar Dutta   : EOM-CC, STEOM-CC
   Dmitry Ganyushin       : Spin-Orbit,Spin-Spin,Magnetic field MRCI
   Miquel Garcia          : C-PCM and meta-GGA Hessian, CC/C-PCM, Gaussian charge scheme
   Yang Guo               : DLPNO-NEVPT2, F12-NEVPT2, CIM, IAO-localization
   Andreas Hansen         : Spin unrestricted coupled pair/coupled cluster methods
   Benjamin Helmich-Paris : MC-RPA, TRAH-SCF, COSX integrals
   Lee Huntington         : MR-EOM, pCC
   Robert Izsak           : Overlap fitted RIJCOSX, COSX-SCS-MP3, EOM
   Marcus Kettner         : VPT2
   Christian Kollmar      : KDIIS, OOCD, Brueckner-CCSD(T), CCSD density, CASPT2, CASPT2-K
   Simone Kossmann        : Meta GGA functionals, TD-DFT gradient, OOMP2, MP2 Hessian
   Martin Krupicka        : Initial AUTO-CI
   Lucas Lang             : DCDCAS
   Marvin Lechner         : AUTO-CI (C++ implementation), FIC-MRCC
   Dagmar Lenk            : GEPOL surface, SMD
   Dimitrios Liakos       : Extrapolation schemes; Compound Job, initial MDCI parallelization
   Dimitrios Manganas     : Further ROCIS development; embedding schemes
   Dimitrios Pantazis     : SARC Basis sets
   Anastasios Papadopoulos: AUTO-CI, single reference methods and gradients
   Taras Petrenko         : DFT Hessian,TD-DFT gradient, ASA, ECA, R-Raman, ABS, FL, XAS/XES, NRVS
   Peter Pinski           : DLPNO-MP2, DLPNO-MP2 Gradient
   Christoph Reimann      : Effective Core Potentials
   Marius Retegan         : Local ZFS, SOC
   Christoph Riplinger    : Optimizer, TS searches, QM/MM, DLPNO-CCSD(T), (RO)-DLPNO pert. Triples
   Tobias Risthaus        : Range-separated hybrids, TD-DFT gradient, RPA, STAB
   Michael Roemelt        : Original ROCIS implementation
   Masaaki Saitow         : Open-shell DLPNO-CCSD energy and density
   Barbara Sandhoefer     : DKH picture change effects
   Avijit Sen             : IP-ROCIS
   Kantharuban Sivalingam : CASSCF convergence, NEVPT2, FIC-MRCI
   Bernardo de Souza      : ESD, SOC TD-DFT
   Georgi Stoychev        : AutoAux, RI-MP2 NMR, DLPNO-MP2 response
   Willem Van den Heuvel  : Paramagnetic NMR
   Boris Wezisla          : Elementary symmetry handling
   Frank Wennmohs         : Technical directorship


 We gratefully acknowledge several colleagues who have allowed us to
 interface, adapt or use parts of their codes:
   Stefan Grimme, W. Hujo, H. Kruse, P. Pracht,  : VdW corrections, initial TS optimization,
                  C. Bannwarth, S. Ehlert          DFT functionals, gCP, sTDA/sTD-DF
   Ed Valeev, F. Pavosevic, A. Kumar             : LibInt (2-el integral package), F12 methods
   Garnet Chan, S. Sharma, J. Yang, R. Olivares  : DMRG
   Ulf Ekstrom                                   : XCFun DFT Library
   Mihaly Kallay                                 : mrcc  (arbitrary order and MRCC methods)
   Jiri Pittner, Ondrej Demel                    : Mk-CCSD
   Frank Weinhold                                : gennbo (NPA and NBO analysis)
   Christopher J. Cramer and Donald G. Truhlar   : smd solvation model
   Lars Goerigk                                  : TD-DFT with DH, B97 family of functionals
   V. Asgeirsson, H. Jonsson                     : NEB implementation
   FAccTs GmbH                                   : IRC, NEB, NEB-TS, DLPNO-Multilevel, CI-OPT
                                                   MM, QMMM, 2- and 3-layer-ONIOM, Crystal-QMMM,
                                                   LR-CPCM, SF, NACMEs, symmetry and pop. for TD-DFT,
                                                   nearIR, NL-DFT gradient (VV10), updates on ESD,
                                                   ML-optimized integration grids
   S Lehtola, MJT Oliveira, MAL Marques          : LibXC Library
   Liviu Ungur et al                             : ANISO software


 Your calculation uses the libint2 library for the computation of 2-el integrals
 For citations please refer to: http://libint.valeyev.net

 Your ORCA version has been built with support for libXC version: 5.1.0
 For citations please refer to: https://tddft.org/programs/libxc/

 This ORCA versions uses:
   CBLAS   interface :  Fast vector & matrix operations
   LAPACKE interface :  Fast linear algebra routines
   SCALAPACK package :  Parallel linear algebra routines
   Shared memory     :  Shared parallel matrices
   BLAS/LAPACK       :  OpenBLAS 0.3.15  USE64BITINT DYNAMIC_ARCH NO_AFFINITY SkylakeX SINGLE_THREADED
        Core in use  :  SkylakeX
   Copyright (c) 2011-2014, The OpenBLAS Project


================================================================================

----- Orbital basis set information -----
Your calculation utilizes the basis: def2-SVP
   F. Weigend and R. Ahlrichs, Phys. Chem. Chem. Phys. 7, 3297 (2005).

----- AuxJ basis set information -----
Your calculation utilizes the auxiliary basis: def2/J
   F. Weigend, Phys. Chem. Chem. Phys. 8, 1057 (2006).

================================================================================
                                        WARNINGS
                       Please study these warnings very carefully!
================================================================================


WARNING: Geometry Optimization
  ===> : Switching off AutoStart
         For restart on a previous wavefunction, please use MOREAD

INFO   : the flag for use of the SHARK integral package has been found!

================================================================================
                                       INPUT FILE
================================================================================
NAME = NaOH_DFT.inp
|  1> ## avogadro generated ORCA input file 
|  2> # Advanced Mode
|  3> # 
|  4> ! B3LYP OPT def2-SVP NormalPrint defgrid2 NormalSCF 
|  5> 
|  6> ! CPCM
|  7> %cpcm
|  8> epsilon 69.0
|  9> refrac 1.34
| 10> end
| 11> 
| 12> %scf
| 13> 	MaxIter 125
| 14> 	CNVDIIS 1
| 15> 	CNVSOSCF 1 
| 16> end
| 17> 
| 18> * xyz -8 1
| 19>    O        1.51284        0.24924       -0.16499
| 20>    H        1.96802        0.91454       -0.65415
| 21>   Na        0.55637       -1.14894        0.86301
| 22> *
| 23> 
| 24> 
| 25>                          ****END OF INPUT****
================================================================================

                       *****************************
                       * Geometry Optimization Run *
                       *****************************

Geometry optimization settings:
Update method            Update   .... BFGS
Choice of coordinates    CoordSys .... Z-matrix Internals
Initial Hessian          InHess   .... Almoef's Model

Convergence Tolerances:
Energy Change            TolE     ....  5.0000e-06 Eh
Max. Gradient            TolMAXG  ....  3.0000e-04 Eh/bohr
RMS Gradient             TolRMSG  ....  1.0000e-04 Eh/bohr
Max. Displacement        TolMAXD  ....  4.0000e-03 bohr
RMS Displacement         TolRMSD  ....  2.0000e-03 bohr
Strict Convergence                ....  False
------------------------------------------------------------------------------
                        ORCA OPTIMIZATION COORDINATE SETUP
------------------------------------------------------------------------------

The optimization will be done in new redundant internal coordinates
Making redundant internal coordinates   ...  (new redundants) done
Evaluating the initial hessian          ...  (Almloef) done
Evaluating the coordinates              ...  done
Calculating the B-matrix                .... done
Calculating the G-matrix                .... done
Diagonalizing the G-matrix              .... done
The first mode is                       ....    0
The number of degrees of freedom        ....    4

    -----------------------------------------------------------------
                    Redundant Internal Coordinates


    -----------------------------------------------------------------
         Definition                    Initial Value    Approx d2E/dq
    -----------------------------------------------------------------
      1. B(H   1,O   0)                  0.9429         0.553635   
      2. B(Na  2,O   0)                  1.9815         0.930613   
      3. L(H   1,O   0,Na  2, 2)       179.9965         0.457901   
      4. L(H   1,O   0,Na  2, 1)       179.9998         0.457901   
    -----------------------------------------------------------------

Number of atoms                         .... 3
Number of degrees of freedom            .... 4

         *************************************************************
         *                GEOMETRY OPTIMIZATION CYCLE   1            *
         *************************************************************
---------------------------------
CARTESIAN COORDINATES (ANGSTROEM)
---------------------------------
  O      1.512840    0.249240   -0.164990
  H      1.968020    0.914540   -0.654150
  Na     0.556370   -1.148940    0.863010

----------------------------
CARTESIAN COORDINATES (A.U.)
----------------------------
  NO LB      ZA    FRAG     MASS         X           Y           Z
   0 O     8.0000    0    15.999    2.858853    0.470995   -0.311786
   1 H     1.0000    0     1.008    3.719019    1.728230   -1.236164
   2 Na   11.0000    0    22.990    1.051387   -2.171182    1.630853

--------------------------------
INTERNAL COORDINATES (ANGSTROEM)
--------------------------------
 O      0   0   0     0.000000000000     0.00000000     0.00000000
 H      1   0   0     0.942915917778     0.00000000     0.00000000
 Na     1   2   0     1.981546409575   179.99686039     0.00000000

---------------------------
INTERNAL COORDINATES (A.U.)
---------------------------
 O      0   0   0     0.000000000000     0.00000000     0.00000000
 H      1   0   0     1.781852851916     0.00000000     0.00000000
 Na     1   2   0     3.744580035752   179.99686039     0.00000000

---------------------
BASIS SET INFORMATION
---------------------
There are 3 groups of distinct atoms

 Group   1 Type O   : 7s4p1d contracted to 3s2p1d pattern {511/31/1}
 Group   2 Type H   : 4s1p contracted to 2s1p pattern {31/1}
 Group   3 Type Na  : 10s6p1d contracted to 4s2p1d pattern {5311/51/1}

Atom   0O    basis set group =>   1
Atom   1H    basis set group =>   2
Atom   2Na   basis set group =>   3
---------------------------------
AUXILIARY/J BASIS SET INFORMATION
---------------------------------
There are 3 groups of distinct atoms

 Group   1 Type O   : 12s5p4d2f1g contracted to 6s4p3d1f1g pattern {711111/2111/211/2/1}
 Group   2 Type H   : 5s2p1d contracted to 3s1p1d pattern {311/2/1}
 Group   3 Type Na  : 14s5p5d2f1g contracted to 8s4p4d1f1g pattern {71111111/2111/2111/2/1}

Atom   0O    basis set group =>   1
Atom   1H    basis set group =>   2
Atom   2Na   basis set group =>   3
------------------------------------------------------------------------------
                           ORCA GTO INTEGRAL CALCULATION
                           -- RI-GTO INTEGRALS CHOSEN --
------------------------------------------------------------------------------
------------------------------------------------------------------------------
                   ___                                                        
                  /   \      - P O W E R E D   B Y -                         
                 /     \                                                     
                 |  |  |   _    _      __       _____    __    __             
                 |  |  |  | |  | |    /  \     |  _  \  |  |  /  |          
                  \  \/   | |  | |   /    \    | | | |  |  | /  /          
                 / \  \   | |__| |  /  /\  \   | |_| |  |  |/  /          
                |  |  |   |  __  | /  /__\  \  |    /   |      \           
                |  |  |   | |  | | |   __   |  |    \   |  |\   \          
                \     /   | |  | | |  |  |  |  | |\  \  |  | \   \       
                 \___/    |_|  |_| |__|  |__|  |_| \__\ |__|  \__/        
                                                                              
                      - O R C A' S   B I G   F R I E N D -                    
                                      &                                       
                       - I N T E G R A L  F E E D E R -                       
                                                                              
 v1 FN, 2020, v2 2021                                                         
------------------------------------------------------------------------------


Reading SHARK input file NaOH_DFT.SHARKINP.tmp ... SHARK General Contraction Test:  Segmented basis detected
   -> Pre-screening matrix *NOT* found on disk - recalculating with NShells=16
   -> Leaving CheckPreScreeningMatrix
ok
----------------------
SHARK INTEGRAL PACKAGE
----------------------

Number of atoms                             ...      3
Number of basis functions                   ...     34
Number of shells                            ...     16
Maximum angular momentum                    ...      2
Integral batch strategy                     ... SHARK/LIBINT Hybrid
RI-J (if used) integral strategy            ... SPLIT-RIJ (Revised 2003 algorithm where possible)
Printlevel                                  ...      2
Contraction scheme used                     ... SEGMENTED contraction
Coulomb Range Separation                    ... NOT USED
Exchange Range Separation                   ... NOT USED
Finite Nucleus Model                        ... NOT USED
Auxiliary Coulomb fitting basis             ... AVAILABLE
   # of basis functions in Aux-J            ...    116
   # of shells in Aux-J                     ...     38
   Maximum angular momentum in Aux-J        ...      4
Auxiliary J/K fitting basis                 ... NOT available
Auxiliary Correlation fitting basis         ... NOT available
Auxiliary 'external' fitting basis          ... NOT available
Integral threshold                          ...     2.500000e-11
Primitive cut-off                           ...     2.500000e-12
Primitive pair pre-selection threshold      ...     2.500000e-12

Calculating pre-screening integrals         ... done (  0.1 sec) Dimension = 16
Organizing shell pair data                  ... done (  0.1 sec)
Shell pair information
Total number of shell pairs                 ...       136
Shell pairs after pre-screening             ...       135
Total number of primitive shell pairs       ...       634
Primitive shell pairs kept                  ...       548
          la=0 lb=0:     44 shell pairs
          la=1 lb=0:     45 shell pairs
          la=1 lb=1:     15 shell pairs
          la=2 lb=0:     18 shell pairs
          la=2 lb=1:     10 shell pairs
          la=2 lb=2:      3 shell pairs

Calculating one electron integrals          ... done (  0.0 sec)
Calculating RI/J V-Matrix + Cholesky decomp.... done (  0.0 sec)
Calculating Nuclear repulsion               ... done (  0.0 sec) ENN=     29.980775264756 Eh

SHARK setup successfully completed in   0.4 seconds

Maximum memory used throughout the entire GTOINT-calculation: 8.8 MB
-------------------------------------------------------------------------------
                                 ORCA SCF
-------------------------------------------------------------------------------

------------
SCF SETTINGS
------------
Hamiltonian:
 Density Functional     Method          .... DFT(GTOs)
 Exchange Functional    Exchange        .... B88
   X-Alpha parameter    XAlpha          ....  0.666667
   Becke's b parameter  XBeta           ....  0.004200
 Correlation Functional Correlation     .... LYP
 LDA part of GGA corr.  LDAOpt          .... VWN-5
 Gradients option       PostSCFGGA      .... off
 Hybrid DFT is turned on
   Fraction HF Exchange ScalHFX         ....  0.200000
   Scaling of DF-GGA-X  ScalDFX         ....  0.720000
   Scaling of DF-GGA-C  ScalDFC         ....  0.810000
   Scaling of DF-LDA-C  ScalLDAC        ....  1.000000
   Perturbative correction              ....  0.000000
   Density functional embedding theory  .... OFF
   NL short-range parameter             ....  4.800000
 RI-approximation to the Coulomb term is turned on
   Number of AuxJ basis functions       .... 116
   RIJ-COSX (HFX calculated with COS-X)).... on


General Settings:
 Integral files         IntName         .... NaOH_DFT
 Hartree-Fock type      HFTyp           .... RHF
 Total Charge           Charge          ....   -8
 Multiplicity           Mult            ....    1
 Number of Electrons    NEL             ....   28
 Basis Dimension        Dim             ....   34
 Nuclear Repulsion      ENuc            ....     29.9807752648 Eh

Convergence Acceleration:
 DIIS                   CNVDIIS         .... on
   Start iteration      DIISMaxIt       ....    12
   Startup error        DIISStart       ....  0.200000
   # of expansion vecs  DIISMaxEq       ....     5
   Bias factor          DIISBfac        ....   1.050
   Max. coefficient     DIISMaxC        ....  10.000
 Trust-Rad. Augm. Hess. CNVTRAH         .... auto
   Auto Start mean grad. ratio tolernc. ....  1.125000
   Auto Start start iteration           ....    20
   Auto Start num. interpolation iter.  ....    10
   Max. Number of Micro iterations      ....    16
   Max. Number of Macro iterations      .... Maxiter - #DIIS iter
   Number of Davidson start vectors     ....     2
   Converg. threshold I  (grad. norm)   ....   1.000e-05
   Converg. threshold II (energy diff.) ....   1.000e-08
   Grad. Scal. Fac. for Micro threshold ....   0.100
   Minimum threshold for Micro iter.    ....   0.010
   NR start threshold (gradient norm)   ....   0.001
   Initial trust radius                 ....   0.400
   Minimum AH scaling param. (alpha)    ....   1.000
   Maximum AH scaling param. (alpha)    .... 1000.000
   Orbital update algorithm             .... Taylor
   White noise on init. David. guess    .... on
   Maximum white noise                  ....   0.010
   Quad. conv. algorithm                .... NR
 SOSCF                  CNVSOSCF        .... on
   Start iteration      SOSCFMaxIt      ....   150
   Startup grad/error   SOSCFStart      ....  0.003300
 Level Shifting         CNVShift        .... on
   Level shift para.    LevelShift      ....    0.2500
   Turn off err/grad.   ShiftErr        ....    0.0010
 Zerner damping         CNVZerner       .... off
 Static damping         CNVDamp         .... on
   Fraction old density DampFac         ....    0.7000
   Max. Damping (<1)    DampMax         ....    0.9800
   Min. Damping (>=0)   DampMin         ....    0.0000
   Turn off err/grad.   DampErr         ....    0.1000
 Fernandez-Rico         CNVRico         .... off

SCF Procedure:
 Maximum # iterations   MaxIter         ....   125
 SCF integral mode      SCFMode         .... Direct
   Integral package                     .... SHARK and LIBINT hybrid scheme
 Reset frequency        DirectResetFreq ....    20
 Integral Threshold     Thresh          ....  2.500e-11 Eh
 Primitive CutOff       TCut            ....  2.500e-12 Eh

Convergence Tolerance:
 Convergence Check Mode ConvCheckMode   .... Total+1el-Energy
 Convergence forced     ConvForced      .... 0
 Energy Change          TolE            ....  1.000e-08 Eh
 1-El. energy change                    ....  1.000e-05 Eh
 Orbital Gradient       TolG            ....  1.000e-05
 Orbital Rotation angle TolX            ....  1.000e-05
 DIIS Error             TolErr          ....  5.000e-07


Diagonalization of the overlap matrix:
Smallest eigenvalue                        ... 4.426e-02
Time for diagonalization                   ...    0.001 sec
Threshold for overlap eigenvalues          ... 1.000e-08
Number of eigenvalues below threshold      ... 0
Time for construction of square roots      ...    0.003 sec
Total time needed                          ...    0.004 sec

SHARK General Contraction Test:  Segmented basis detected
   -> Pre-screening matrix found on disk - Trying to read with NShells=16
   -> Passing Pre-screening matrix on to SHARK ...ok
   -> Leaving CheckPreScreeningMatrix
----------------------
SHARK INTEGRAL PACKAGE
----------------------

Number of atoms                             ...      3
Number of basis functions                   ...     34
Number of shells                            ...     16
Maximum angular momentum                    ...      2
Integral batch strategy                     ... SHARK/LIBINT Hybrid
RI-J (if used) integral strategy            ... SPLIT-RIJ (Revised 2003 algorithm where possible)
Printlevel                                  ...      2
Contraction scheme used                     ... SEGMENTED contraction
Coulomb Range Separation                    ... NOT USED
Exchange Range Separation                   ... NOT USED
Finite Nucleus Model                        ... NOT USED
Auxiliary Coulomb fitting basis             ... AVAILABLE
   # of basis functions in Aux-J            ...    116
   # of shells in Aux-J                     ...     38
   Maximum angular momentum in Aux-J        ...      4
Auxiliary J/K fitting basis                 ... NOT available
Auxiliary Correlation fitting basis         ... NOT available
Auxiliary 'external' fitting basis          ... NOT available
Integral threshold                          ...     2.500000e-11
Primitive cut-off                           ...     2.500000e-12
Primitive pair pre-selection threshold      ...     2.500000e-12

Time for model grid setup =    0.094 sec

------------------------------
INITIAL GUESS: MODEL POTENTIAL
------------------------------
Loading Hartree-Fock densities                     ... done
Calculating cut-offs                               ... done
Initializing the effective Hamiltonian             ... done
Setting up the integral package (SHARK)            ... done
Starting the Coulomb interaction                   ...     -> Generating integrals - 
    -> L=0 0 :     0.001 sec done=      1320 skipped=         0 prim-skipped=         0
    -> L=1 0 :     0.001 sec done=      1340 skipped=         4 prim-skipped=         0
    -> L=1 1 :     0.001 sec done=       450 skipped=         0 prim-skipped=         0
    -> L=2 0 :     0.077 sec done=       540 skipped=         0 prim-skipped=         0
    -> L=2 1 :     0.000 sec done=       300 skipped=         0 prim-skipped=         0
    -> L=2 2 :     0.000 sec done=        90 skipped=         0 prim-skipped=         0
done (   0.1 sec)
Reading the grid                                   ... done
Mapping shells                                     ... done
Starting the XC term evaluation                    ... done (   0.0 sec)
  promolecular density results
     # of electrons  =     19.999626546
     EX              =    -22.468931567
     EC              =     -0.732729740
     EX+EC           =    -23.201661307
Transforming the Hamiltonian                       ... done (   0.0 sec)
Diagonalizing the Hamiltonian                      ... done (   0.0 sec)
Back transforming the eigenvectors                 ... done (   0.0 sec)
Now organizing SCF variables                       ... done
                      ------------------
                      INITIAL GUESS DONE (   0.2 sec)
                      ------------------
-------------------
DFT GRID GENERATION
-------------------

General Integration Accuracy     IntAcc      ... 4.388
Radial Grid Type                 RadialGrid  ... OptM3 with GC (2021)
Angular Grid (max. ang.)         AngularGrid ... 4 (Lebedev-302)
Angular grid pruning method      GridPruning ... 4 (adaptive)
Weight generation scheme         WeightScheme... Becke
Basis function cutoff            BFCut       ... 1.0000e-11
Integration weight cutoff        WCut        ... 1.0000e-14
Angular grids for H and He will be reduced by one unit
Partially contracted basis set               ... off
Rotationally invariant grid construction     ... off

Total number of grid points                  ...    16766
Total number of batches                      ...      264
Average number of points per batch           ...       63
Average number of grid points per atom       ...     5589
Time for grid setup =    0.488 sec

--------------------
COSX GRID GENERATION
--------------------

GRIDX 1
-------
General Integration Accuracy     IntAcc      ... 3.816
Radial Grid Type                 RadialGrid  ... OptM3 with GC (2021)
Angular Grid (max. ang.)         AngularGrid ... 1 (Lebedev-50)
Angular grid pruning method      GridPruning ... 4 (adaptive)
Weight generation scheme         WeightScheme... Becke
Basis function cutoff            BFCut       ... 1.0000e-11
Integration weight cutoff        WCut        ... 1.0000e-14
Angular grids for H and He will be reduced by one unit
Partially contracted basis set               ... on
Rotationally invariant grid construction     ... off

Total number of grid points                  ...     2051
Total number of batches                      ...       33
Average number of points per batch           ...       62
Average number of grid points per atom       ...      684
UseSFitting                                  ... on

GRIDX 2
-------
General Integration Accuracy     IntAcc      ... 4.020
Radial Grid Type                 RadialGrid  ... OptM3 with GC (2021)
Angular Grid (max. ang.)         AngularGrid ... 2 (Lebedev-110)
Angular grid pruning method      GridPruning ... 4 (adaptive)
Weight generation scheme         WeightScheme... Becke
Basis function cutoff            BFCut       ... 1.0000e-11
Integration weight cutoff        WCut        ... 1.0000e-14
Angular grids for H and He will be reduced by one unit
Partially contracted basis set               ... on
Rotationally invariant grid construction     ... off

Total number of grid points                  ...     4663
Total number of batches                      ...       75
Average number of points per batch           ...       62
Average number of grid points per atom       ...     1554
UseSFitting                                  ... on

GRIDX 3
-------
General Integration Accuracy     IntAcc      ... 4.338
Radial Grid Type                 RadialGrid  ... OptM3 with GC (2021)
Angular Grid (max. ang.)         AngularGrid ... 3 (Lebedev-194)
Angular grid pruning method      GridPruning ... 4 (adaptive)
Weight generation scheme         WeightScheme... Becke
Basis function cutoff            BFCut       ... 1.0000e-11
Integration weight cutoff        WCut        ... 1.0000e-14
Angular grids for H and He will be reduced by one unit
Partially contracted basis set               ... on
Rotationally invariant grid construction     ... off

Total number of grid points                  ...    10985
Total number of batches                      ...      173
Average number of points per batch           ...       63
Average number of grid points per atom       ...     3662
UseSFitting                                  ... on

Time for X-Grid setup             =    0.314 sec


--------------------
CPCM SOLVATION MODEL
--------------------
CPCM parameters:
  Epsilon                                         ...      69.0000
  Refrac                                          ...       1.3400
  Rsolv                                           ...       1.3000
  Surface type                                    ... GAUSSIAN VDW
  Epsilon function type                           ...         CPCM
Radii:
 Radius for O  used is    3.4469 Bohr (=   1.8240 Ang.)
 Radius for H  used is    2.4944 Bohr (=   1.3200 Ang.)
 Radius for Na used is    5.1476 Bohr (=   2.7240 Ang.)
Calculating surface                               ...        done! (  0.0s)
GEPOL surface points                              ...          242
GEPOL Volume                                      ...     639.4541
GEPOL Surface-area                                ...     371.3019
Calculating surface distance matrix               ...        done! (  0.0s)
Performing Cholesky decomposition & store         ...        done! (  0.0s)
Overall time for CPCM initialization              ...                 0.0s
--------------
SCF ITERATIONS
--------------
               ***  Starting incremental Fock matrix formation  ***
==>> SHARK/AuxDens: NDens=1 Thresh =     2.500000e-11 TCut=    2.500000e-12 Lmax=2 LmaxAux=4
    -> Making Hermite density - ok     0.000 sec
    -> Making Aux-basis density - (lmax=2)
    -> L=0 0:    0.001 sec done=      1672 (100.0%) skipped=         0 
    -> L=1 0:    0.001 sec done=      1672 ( 97.8%) skipped=        38 
    -> L=1 1:    0.001 sec done=       570 (100.0%) skipped=         0 
    -> L=2 0:    0.001 sec done=       684 (100.0%) skipped=         0 
    -> L=2 1:    0.000 sec done=       380 (100.0%) skipped=         0 
    -> L=2 2:    0.000 sec done=       114 (100.0%) skipped=         0 
    -> Aux basis density formed in    0.0 sec
    -> Solving linear equations - ok (   0.0 sec)
        Auxbasis Hermite Density:
        P|s>                     ...  0.000
        P|p>                     ...  0.000
        P|d>                     ...  0.000
        P|f>                     ...  0.000
        P|g>                     ...  0.000
        Building the Coulomb matrix: 
        J|ss>                          ... done (  0.0 sec) ndone=    12118 nskipped1=        0 nskipped2=      272
        J|ps>                          ... done (  0.0 sec) ndone=    11139 nskipped1=      110 nskipped2=      339
        J|pp>                          ... done (  0.0 sec) ndone=     4275 nskipped1=        0 nskipped2=       91
        J|ds>                          ... done (  0.0 sec) ndone=     2467 nskipped1=        0 nskipped2=       11
        J|dp>                          ... done (  0.0 sec) ndone=     1298 nskipped1=        0 nskipped2=        0
        J|dd>                          ... done (  0.0 sec) ndone=      177 nskipped1=        0 nskipped2=        0
        Coulomb matrix built in   0.0 sec

        Total time for Split-RI-J                ...    0.009 sec
          (0) Prelude                            ...    0.000 sec
          (1) Hermite density                    ...    0.000 sec
          (2) Aux basis density                  ...    0.000 sec (inner=  0.0)
          (3) Linear equation solution           ...    0.000 sec
          (4) J-Matrix construction              ...    0.003 sec (inner=  0.0)
        ---------------------------------------------------------

                         ----------------------------
                         !        ITERATION     0   !
                         ----------------------------
   Total Energy        :    -237.275768721360 Eh
   Energy Change       :    -237.275768721360 Eh
   MAX-DP              :       0.942115511907
   RMS-DP              :       0.039402149435
   Actual Damping      :       0.7000
   Actual Level Shift  :       0.2500 Eh
   Int. Num. El.       :    27.99028524 (UP=   13.99514262 DN=   13.99514262)
   Exchange            :   -19.60843455
   Correlation         :    -1.08893112

==>> SHARK/AuxDens: NDens=1 Thresh =     2.500000e-11 TCut=    2.500000e-12 Lmax=2 LmaxAux=4
    -> Making Hermite density - ok     0.001 sec
    -> Making Aux-basis density - (lmax=2)
    -> L=0 0:    0.082 sec done=      1672 (100.0%) skipped=         0 
    -> L=1 0:    0.001 sec done=      1672 ( 97.8%) skipped=        38 
    -> L=1 1:    0.001 sec done=       570 (100.0%) skipped=         0 
    -> L=2 0:    0.000 sec done=       681 ( 99.6%) skipped=         3 
    -> L=2 1:    0.000 sec done=       380 (100.0%) skipped=         0 
    -> L=2 2:    0.000 sec done=       114 (100.0%) skipped=         0 
    -> Aux basis density formed in    0.1 sec
    -> Solving linear equations - ok (   0.0 sec)
        Auxbasis Hermite Density:
        P|s>                     ...  0.000
        P|p>                     ...  0.000
        P|d>                     ...  0.000
        P|f>                     ...  0.000
        P|g>                     ...  0.000
        Building the Coulomb matrix: 
        J|ss>                          ... done (  0.0 sec) ndone=    12118 nskipped1=        0 nskipped2=      272
        J|ps>                          ... done (  0.0 sec) ndone=    11104 nskipped1=      170 nskipped2=      244
        J|pp>                          ... done (  0.0 sec) ndone=     4275 nskipped1=        0 nskipped2=       91
        J|ds>                          ... done (  0.0 sec) ndone=     2467 nskipped1=        0 nskipped2=       11
        J|dp>                          ... done (  0.0 sec) ndone=     1298 nskipped1=        0 nskipped2=        0
        J|dd>                          ... done (  0.0 sec) ndone=      177 nskipped1=        0 nskipped2=        0
        Coulomb matrix built in   0.0 sec

        Total time for Split-RI-J                ...    0.089 sec
          (0) Prelude                            ...    0.000 sec
          (1) Hermite density                    ...    0.000 sec
          (2) Aux basis density                  ...    0.000 sec (inner=  0.0)
          (3) Linear equation solution           ...    0.000 sec
          (4) J-Matrix construction              ...    0.003 sec (inner=  0.0)
        ---------------------------------------------------------

                         ----------------------------
                         !        ITERATION     1   !
                         ----------------------------
   Total Energy        :    -237.510816470986 Eh
   Energy Change       :      -0.235047749627 Eh
   MAX-DP              :       1.080301215409
   RMS-DP              :       0.039999677149
   Actual Damping      :       0.7000
   Actual Level Shift  :       0.2500 Eh
   Int. Num. El.       :    27.98696457 (UP=   13.99348228 DN=   13.99348228)
   Exchange            :   -19.24907964
   Correlation         :    -1.07461146

==>> SHARK/AuxDens: NDens=1 Thresh =     2.500000e-11 TCut=    2.500000e-12 Lmax=2 LmaxAux=4
    -> Making Hermite density - ok     0.001 sec
    -> Making Aux-basis density - (lmax=2)
    -> L=0 0:    0.002 sec done=      1672 (100.0%) skipped=         0 
    -> L=1 0:    0.002 sec done=      1672 ( 97.8%) skipped=        38 
    -> L=1 1:    0.001 sec done=       570 (100.0%) skipped=         0 
    -> L=2 0:    0.000 sec done=       648 ( 94.7%) skipped=        36 
    -> L=2 1:    0.000 sec done=       380 (100.0%) skipped=         0 
    -> L=2 2:    0.000 sec done=       114 (100.0%) skipped=         0 
    -> Aux basis density formed in    0.0 sec
    -> Solving linear equations - ok (   0.0 sec)
        Auxbasis Hermite Density:
        P|s>                     ...  0.000
        P|p>                     ...  0.000
        P|d>                     ...  0.000
        P|f>                     ...  0.000
        P|g>                     ...  0.000
        Building the Coulomb matrix: 
        J|ss>                          ... done (  0.0 sec) ndone=    12118 nskipped1=        0 nskipped2=      272
        J|ps>                          ... done (  0.0 sec) ndone=    11098 nskipped1=      180 nskipped2=      240
        J|pp>                          ... done (  0.0 sec) ndone=     4275 nskipped1=        0 nskipped2=       91
        J|ds>                          ... done (  0.0 sec) ndone=     2467 nskipped1=        0 nskipped2=       11
        J|dp>                          ... done (  0.0 sec) ndone=     1298 nskipped1=        0 nskipped2=        0
        J|dd>                          ... done (  0.0 sec) ndone=      177 nskipped1=        0 nskipped2=        0
        Coulomb matrix built in   0.0 sec

        Total time for Split-RI-J                ...    0.009 sec
          (0) Prelude                            ...    0.000 sec
          (1) Hermite density                    ...    0.000 sec
          (2) Aux basis density                  ...    0.000 sec (inner=  0.0)
          (3) Linear equation solution           ...    0.000 sec
          (4) J-Matrix construction              ...    0.003 sec (inner=  0.0)
        ---------------------------------------------------------
                               ***Turning on DIIS***

                         ----------------------------
                         !        ITERATION     2   !
                         ----------------------------
   Total Energy        :    -237.593332300214 Eh
   Energy Change       :      -0.082515829227 Eh
   MAX-DP              :       2.950889713618
   RMS-DP              :       0.106718413634
   Actual Damping      :       0.0000
   Actual Level Shift  :       0.2500 Eh
   Int. Num. El.       :    27.98329084 (UP=   13.99164542 DN=   13.99164542)
   Exchange            :   -19.05759014
   Correlation         :    -1.06536371
   DIIS-Error          :       0.044623865592

==>> SHARK/AuxDens: NDens=1 Thresh =     2.500000e-11 TCut=    2.500000e-12 Lmax=2 LmaxAux=4
    -> Making Hermite density - ok     0.000 sec
    -> Making Aux-basis density - (lmax=2)
    -> L=0 0:    0.001 sec done=      1672 (100.0%) skipped=         0 
    -> L=1 0:    0.001 sec done=      1672 ( 97.8%) skipped=        38 
    -> L=1 1:    0.001 sec done=       570 (100.0%) skipped=         0 
    -> L=2 0:    0.000 sec done=       684 (100.0%) skipped=         0 
    -> L=2 1:    0.000 sec done=       380 (100.0%) skipped=         0 
    -> L=2 2:    0.000 sec done=       114 (100.0%) skipped=         0 
    -> Aux basis density formed in    0.0 sec
    -> Solving linear equations - ok (   0.0 sec)
        Auxbasis Hermite Density:
        P|s>                     ...  0.000
        P|p>                     ...  0.000
        P|d>                     ...  0.000
        P|f>                     ...  0.000
        P|g>                     ...  0.000
        Building the Coulomb matrix: 
        J|ss>                          ... done (  0.0 sec) ndone=    12118 nskipped1=        0 nskipped2=      272
        J|ps>                          ... done (  0.0 sec) ndone=    11106 nskipped1=      165 nskipped2=      247
        J|pp>                          ... done (  0.0 sec) ndone=     4275 nskipped1=        0 nskipped2=       91
        J|ds>                          ... done (  0.0 sec) ndone=     2467 nskipped1=        0 nskipped2=       11
        J|dp>                          ... done (  0.0 sec) ndone=     1298 nskipped1=        0 nskipped2=        0
        J|dd>                          ... done (  0.0 sec) ndone=      177 nskipped1=        0 nskipped2=        0
        Coulomb matrix built in   0.0 sec

        Total time for Split-RI-J                ...    0.007 sec
          (0) Prelude                            ...    0.000 sec
          (1) Hermite density                    ...    0.000 sec
          (2) Aux basis density                  ...    0.000 sec (inner=  0.0)
          (3) Linear equation solution           ...    0.000 sec
          (4) J-Matrix construction              ...    0.003 sec (inner=  0.0)
        ---------------------------------------------------------

                         ----------------------------
                         !        ITERATION     3   !
                         ----------------------------
   Total Energy        :    -237.774562542492 Eh
   Energy Change       :      -0.181230242278 Eh
   MAX-DP              :       0.052253518755
   RMS-DP              :       0.003461476336
   Actual Damping      :       0.7000
   Actual Level Shift  :       0.2500 Eh
   Int. Num. El.       :    27.97350536 (UP=   13.98675268 DN=   13.98675268)
   Exchange            :   -18.88793878
   Correlation         :    -1.05278291
   DIIS-Error          :       0.117893393634
   DIIS coefficients:
      0.86427   0.13573

==>> SHARK/AuxDens: NDens=1 Thresh =     2.500000e-11 TCut=    2.500000e-12 Lmax=2 LmaxAux=4
    -> Making Hermite density - ok     0.000 sec
    -> Making Aux-basis density - (lmax=2)
    -> L=0 0:    0.001 sec done=      1663 ( 99.5%) skipped=         9 
    -> L=1 0:    0.001 sec done=      1672 ( 97.8%) skipped=        38 
    -> L=1 1:    0.001 sec done=       570 (100.0%) skipped=         0 
    -> L=2 0:    0.081 sec done=       667 ( 97.5%) skipped=        17 
    -> L=2 1:    0.001 sec done=       380 (100.0%) skipped=         0 
    -> L=2 2:    0.000 sec done=       114 (100.0%) skipped=         0 
    -> Aux basis density formed in    0.1 sec
    -> Solving linear equations - ok (   0.0 sec)
        Auxbasis Hermite Density:
        P|s>                     ...  0.000
        P|p>                     ...  0.000
        P|d>                     ...  0.000
        P|f>                     ...  0.000
        P|g>                     ...  0.000
        Building the Coulomb matrix: 
        J|ss>                          ... done (  0.0 sec) ndone=    12063 nskipped1=       25 nskipped2=      267
        J|ps>                          ... done (  0.0 sec) ndone=    11093 nskipped1=      190 nskipped2=      235
        J|pp>                          ... done (  0.0 sec) ndone=     4275 nskipped1=        0 nskipped2=       91
        J|ds>                          ... done (  0.0 sec) ndone=     2467 nskipped1=        0 nskipped2=       11
        J|dp>                          ... done (  0.0 sec) ndone=     1298 nskipped1=        0 nskipped2=        0
        J|dd>                          ... done (  0.0 sec) ndone=      177 nskipped1=        0 nskipped2=        0
        Coulomb matrix built in   0.0 sec

        Total time for Split-RI-J                ...    0.088 sec
          (0) Prelude                            ...    0.000 sec
          (1) Hermite density                    ...    0.000 sec
          (2) Aux basis density                  ...    0.000 sec (inner=  0.0)
          (3) Linear equation solution           ...    0.000 sec
          (4) J-Matrix construction              ...    0.003 sec (inner=  0.0)
        ---------------------------------------------------------

                         ----------------------------
                         !        ITERATION     4   !
                         ----------------------------
   Total Energy        :    -237.782520623149 Eh
   Energy Change       :      -0.007958080657 Eh
   MAX-DP              :       0.213999790599
   RMS-DP              :       0.012676858952
   Actual Damping      :       0.0000
   Actual Level Shift  :       0.2500 Eh
   Int. Num. El.       :    27.97338721 (UP=   13.98669361 DN=   13.98669361)
   Exchange            :   -18.91319523
   Correlation         :    -1.05370599
   DIIS-Error          :       0.088111982097
   DIIS coefficients:
      0.56926  -0.80732   1.23806

==>> SHARK/AuxDens: NDens=1 Thresh =     2.500000e-11 TCut=    2.500000e-12 Lmax=2 LmaxAux=4
    -> Making Hermite density - ok     0.001 sec
    -> Making Aux-basis density - (lmax=2)
    -> L=0 0:    0.001 sec done=      1672 (100.0%) skipped=         0 
    -> L=1 0:    0.002 sec done=      1672 ( 97.8%) skipped=        38 
    -> L=1 1:    0.001 sec done=       570 (100.0%) skipped=         0 
    -> L=2 0:    0.001 sec done=       684 (100.0%) skipped=         0 
    -> L=2 1:    0.001 sec done=       380 (100.0%) skipped=         0 
    -> L=2 2:    0.000 sec done=       114 (100.0%) skipped=         0 
    -> Aux basis density formed in    0.0 sec
    -> Solving linear equations - ok (   0.0 sec)
        Auxbasis Hermite Density:
        P|s>                     ...  0.000
        P|p>                     ...  0.000
        P|d>                     ...  0.000
        P|f>                     ...  0.000
        P|g>                     ...  0.000
        Building the Coulomb matrix: 
        J|ss>                          ... done (  0.0 sec) ndone=    12118 nskipped1=        0 nskipped2=      272
        J|ps>                          ... done (  0.1 sec) ndone=    11096 nskipped1=      185 nskipped2=      237
        J|pp>                          ... done (  0.0 sec) ndone=     4275 nskipped1=        0 nskipped2=       91
        J|ds>                          ... done (  0.0 sec) ndone=     2467 nskipped1=        0 nskipped2=       11
        J|dp>                          ... done (  0.0 sec) ndone=     1298 nskipped1=        0 nskipped2=        0
        J|dd>                          ... done (  0.0 sec) ndone=      177 nskipped1=        0 nskipped2=        0
        Coulomb matrix built in   0.1 sec

        Total time for Split-RI-J                ...    0.082 sec
          (0) Prelude                            ...    0.000 sec
          (1) Hermite density                    ...    0.000 sec
          (2) Aux basis density                  ...    0.000 sec (inner=  0.0)
          (3) Linear equation solution           ...    0.000 sec
          (4) J-Matrix construction              ...    0.075 sec (inner=  0.1)
        ---------------------------------------------------------

                         ----------------------------
                         !        ITERATION     5   !
                         ----------------------------
   Total Energy        :    -237.797628367312 Eh
   Energy Change       :      -0.015107744163 Eh
   MAX-DP              :       0.082166892665
   RMS-DP              :       0.005004837315
   Actual Damping      :       0.0000
   Actual Level Shift  :       0.2500 Eh
   Int. Num. El.       :    27.97303195 (UP=   13.98651597 DN=   13.98651597)
   Exchange            :   -18.99975283
   Correlation         :    -1.05694703
   DIIS-Error          :       0.009818755897
   DIIS coefficients:
      0.03471   0.02756   0.02582   0.91191

==>> SHARK/AuxDens: NDens=1 Thresh =     2.500000e-11 TCut=    2.500000e-12 Lmax=2 LmaxAux=4
    -> Making Hermite density - ok     0.000 sec
    -> Making Aux-basis density - (lmax=2)
    -> L=0 0:    0.001 sec done=      1640 ( 98.1%) skipped=        32 
    -> L=1 0:    0.001 sec done=      1672 ( 97.8%) skipped=        38 
    -> L=1 1:    0.001 sec done=       570 (100.0%) skipped=         0 
    -> L=2 0:    0.000 sec done=       680 ( 99.4%) skipped=         4 
    -> L=2 1:    0.000 sec done=       380 (100.0%) skipped=         0 
    -> L=2 2:    0.000 sec done=       114 (100.0%) skipped=         0 
    -> Aux basis density formed in    0.0 sec
    -> Solving linear equations - ok (   0.0 sec)
        Auxbasis Hermite Density:
        P|s>                     ...  0.000
        P|p>                     ...  0.000
        P|d>                     ...  0.000
        P|f>                     ...  0.000
        P|g>                     ...  0.000
        Building the Coulomb matrix: 
        J|ss>                          ... done (  0.0 sec) ndone=    12108 nskipped1=       10 nskipped2=      272
        J|ps>                          ... done (  0.0 sec) ndone=    11093 nskipped1=      190 nskipped2=      235
        J|pp>                          ... done (  0.0 sec) ndone=     4275 nskipped1=        0 nskipped2=       91
        J|ds>                          ... done (  0.0 sec) ndone=     2467 nskipped1=        0 nskipped2=       11
        J|dp>                          ... done (  0.0 sec) ndone=     1298 nskipped1=        0 nskipped2=        0
        J|dd>                          ... done (  0.0 sec) ndone=      177 nskipped1=        0 nskipped2=        0
        Coulomb matrix built in   0.0 sec

        Total time for Split-RI-J                ...    0.008 sec
          (0) Prelude                            ...    0.000 sec
          (1) Hermite density                    ...    0.000 sec
          (2) Aux basis density                  ...    0.000 sec (inner=  0.0)
          (3) Linear equation solution           ...    0.000 sec
          (4) J-Matrix construction              ...    0.003 sec (inner=  0.0)
        ---------------------------------------------------------

                         ----------------------------
                         !        ITERATION     6   !
                         ----------------------------
   Total Energy        :    -237.798803112649 Eh
   Energy Change       :      -0.001174745337 Eh
   MAX-DP              :       0.063083646166
   RMS-DP              :       0.004212130437
   Actual Damping      :       0.0000
   Actual Level Shift  :       0.2500 Eh
   Int. Num. El.       :    27.97302150 (UP=   13.98651075 DN=   13.98651075)
   Exchange            :   -18.99657434
   Correlation         :    -1.05698011
   DIIS-Error          :       0.003996821413
   DIIS coefficients:
     -0.02911  -0.00585  -0.00901  -0.22530   1.26927

==>> SHARK/AuxDens: NDens=1 Thresh =     2.500000e-11 TCut=    2.500000e-12 Lmax=2 LmaxAux=4
    -> Making Hermite density - ok     0.001 sec
    -> Making Aux-basis density - (lmax=2)
    -> L=0 0:    0.082 sec done=      1668 ( 99.8%) skipped=         4 
    -> L=1 0:    0.002 sec done=      1672 ( 97.8%) skipped=        38 
    -> L=1 1:    0.001 sec done=       570 (100.0%) skipped=         0 
    -> L=2 0:    0.000 sec done=       680 ( 99.4%) skipped=         4 
    -> L=2 1:    0.000 sec done=       380 (100.0%) skipped=         0 
    -> L=2 2:    0.000 sec done=       114 (100.0%) skipped=         0 
    -> Aux basis density formed in    0.1 sec
    -> Solving linear equations - ok (   0.0 sec)
        Auxbasis Hermite Density:
        P|s>                     ...  0.000
        P|p>                     ...  0.000
        P|d>                     ...  0.000
        P|f>                     ...  0.000
        P|g>                     ...  0.000
        Building the Coulomb matrix: 
        J|ss>                          ... done (  0.0 sec) ndone=    12072 nskipped1=       15 nskipped2=      268
        J|ps>                          ... done (  0.0 sec) ndone=    11093 nskipped1=      190 nskipped2=      235
        J|pp>                          ... done (  0.0 sec) ndone=     4275 nskipped1=        0 nskipped2=       91
        J|ds>                          ... done (  0.0 sec) ndone=     2467 nskipped1=        0 nskipped2=       11
        J|dp>                          ... done (  0.0 sec) ndone=     1298 nskipped1=        0 nskipped2=        0
        J|dd>                          ... done (  0.0 sec) ndone=      177 nskipped1=        0 nskipped2=        0
        Coulomb matrix built in   0.0 sec

        Total time for Split-RI-J                ...    0.090 sec
          (0) Prelude                            ...    0.000 sec
          (1) Hermite density                    ...    0.000 sec
          (2) Aux basis density                  ...    0.000 sec (inner=  0.0)
          (3) Linear equation solution           ...    0.000 sec
          (4) J-Matrix construction              ...    0.003 sec (inner=  0.0)
        ---------------------------------------------------------

                         ----------------------------
                         !        ITERATION     7   !
                         ----------------------------
   Total Energy        :    -237.799349095966 Eh
   Energy Change       :      -0.000545983317 Eh
   MAX-DP              :       0.046574142901
   RMS-DP              :       0.003575337822
   Actual Damping      :       0.0000
   Actual Level Shift  :       0.2500 Eh
   Int. Num. El.       :    27.97286970 (UP=   13.98643485 DN=   13.98643485)
   Exchange            :   -18.99704704
   Correlation         :    -1.05699058
   DIIS-Error          :       0.003051472125
   DIIS coefficients:
      1.52528  -0.00465  -0.00707  -0.06591  -0.44765

==>> SHARK/AuxDens: NDens=1 Thresh =     2.500000e-11 TCut=    2.500000e-12 Lmax=2 LmaxAux=4
    -> Making Hermite density - ok     0.000 sec
    -> Making Aux-basis density - (lmax=2)
    -> L=0 0:    0.001 sec done=      1663 ( 99.5%) skipped=         9 
    -> L=1 0:    0.001 sec done=      1672 ( 97.8%) skipped=        38 
    -> L=1 1:    0.001 sec done=       570 (100.0%) skipped=         0 
    -> L=2 0:    0.001 sec done=       661 ( 96.6%) skipped=        23 
    -> L=2 1:    0.001 sec done=       380 (100.0%) skipped=         0 
    -> L=2 2:    0.000 sec done=       114 (100.0%) skipped=         0 
    -> Aux basis density formed in    0.0 sec
    -> Solving linear equations - ok (   0.0 sec)
        Auxbasis Hermite Density:
        P|s>                     ...  0.000
        P|p>                     ...  0.000
        P|d>                     ...  0.000
        P|f>                     ...  0.000
        P|g>                     ...  0.000
        Building the Coulomb matrix: 
        J|ss>                          ... done (  0.0 sec) ndone=    12072 nskipped1=       20 nskipped2=      268
        J|ps>                          ... done (  0.0 sec) ndone=    11056 nskipped1=      200 nskipped2=      232
        J|pp>                          ... done (  0.0 sec) ndone=     4275 nskipped1=        0 nskipped2=       91
        J|ds>                          ... done (  0.0 sec) ndone=     2432 nskipped1=       10 nskipped2=        6
        J|dp>                          ... done (  0.0 sec) ndone=     1298 nskipped1=        0 nskipped2=        0
        J|dd>                          ... done (  0.0 sec) ndone=      177 nskipped1=        0 nskipped2=        0
        Coulomb matrix built in   0.0 sec

        Total time for Split-RI-J                ...    0.009 sec
          (0) Prelude                            ...    0.000 sec
          (1) Hermite density                    ...    0.000 sec
          (2) Aux basis density                  ...    0.000 sec (inner=  0.0)
          (3) Linear equation solution           ...    0.000 sec
          (4) J-Matrix construction              ...    0.003 sec (inner=  0.0)
        ---------------------------------------------------------

                         ----------------------------
                         !        ITERATION     8   !
                         ----------------------------
   Total Energy        :    -237.799654088203 Eh
   Energy Change       :      -0.000304992237 Eh
   MAX-DP              :       0.038767576892
   RMS-DP              :       0.003155158809
   Actual Damping      :       0.0000
   Actual Level Shift  :       0.2500 Eh
   Int. Num. El.       :    27.97268505 (UP=   13.98634252 DN=   13.98634252)
   Exchange            :   -18.99646450
   Correlation         :    -1.05692403
   DIIS-Error          :       0.002409468898
   DIIS coefficients:
     -0.61697   1.92955  -0.01304   0.03776  -0.33729

==>> SHARK/AuxDens: NDens=1 Thresh =     2.500000e-11 TCut=    2.500000e-12 Lmax=2 LmaxAux=4
    -> Making Hermite density - ok     0.000 sec
    -> Making Aux-basis density - (lmax=2)
    -> L=0 0:    0.001 sec done=      1649 ( 98.6%) skipped=        23 
    -> L=1 0:    0.001 sec done=      1672 ( 97.8%) skipped=        38 
    -> L=1 1:    0.001 sec done=       570 (100.0%) skipped=         0 
    -> L=2 0:    0.000 sec done=       661 ( 96.6%) skipped=        23 
    -> L=2 1:    0.000 sec done=       380 (100.0%) skipped=         0 
    -> L=2 2:    0.000 sec done=       114 (100.0%) skipped=         0 
    -> Aux basis density formed in    0.0 sec
    -> Solving linear equations - ok (   0.0 sec)
        Auxbasis Hermite Density:
        P|s>                     ...  0.000
        P|p>                     ...  0.000
        P|d>                     ...  0.000
        P|f>                     ...  0.000
        P|g>                     ...  0.000
        Building the Coulomb matrix: 
        J|ss>                          ... done (  0.0 sec) ndone=    12032 nskipped1=       30 nskipped2=      268
        J|ps>                          ... done (  0.0 sec) ndone=    11061 nskipped1=      195 nskipped2=      232
        J|pp>                          ... done (  0.0 sec) ndone=     4275 nskipped1=        0 nskipped2=       91
        J|ds>                          ... done (  0.0 sec) ndone=     2437 nskipped1=        5 nskipped2=        6
        J|dp>                          ... done (  0.0 sec) ndone=     1298 nskipped1=        0 nskipped2=        0
        J|dd>                          ... done (  0.0 sec) ndone=      177 nskipped1=        0 nskipped2=        0
        Coulomb matrix built in   0.0 sec

        Total time for Split-RI-J                ...    0.008 sec
          (0) Prelude                            ...    0.000 sec
          (1) Hermite density                    ...    0.000 sec
          (2) Aux basis density                  ...    0.000 sec (inner=  0.0)
          (3) Linear equation solution           ...    0.000 sec
          (4) J-Matrix construction              ...    0.003 sec (inner=  0.0)
        ---------------------------------------------------------

                         ----------------------------
                         !        ITERATION     9   !
                         ----------------------------
   Total Energy        :    -237.799847851424 Eh
   Energy Change       :      -0.000193763221 Eh
   MAX-DP              :       0.028450113003
   RMS-DP              :       0.002330903551
   Actual Damping      :       0.0000
   Actual Level Shift  :       0.2500 Eh
   Int. Num. El.       :    27.97251619 (UP=   13.98625809 DN=   13.98625809)
   Exchange            :   -18.99671932
   Correlation         :    -1.05688244
   DIIS-Error          :       0.001756483707
   DIIS coefficients:
     -0.76436  -0.23550   1.82135   0.01142   0.16709

==>> SHARK/AuxDens: NDens=1 Thresh =     2.500000e-11 TCut=    2.500000e-12 Lmax=2 LmaxAux=4
    -> Making Hermite density - ok     0.000 sec
    -> Making Aux-basis density - (lmax=2)
    -> L=0 0:    0.001 sec done=      1635 ( 97.8%) skipped=        37 
    -> L=1 0:    0.001 sec done=      1668 ( 97.5%) skipped=        42 
    -> L=1 1:    0.001 sec done=       570 (100.0%) skipped=         0 
    -> L=2 0:    0.000 sec done=       648 ( 94.7%) skipped=        36 
    -> L=2 1:    0.000 sec done=       380 (100.0%) skipped=         0 
    -> L=2 2:    0.000 sec done=       114 (100.0%) skipped=         0 
    -> Aux basis density formed in    0.0 sec
    -> Solving linear equations - ok (   0.0 sec)
        Auxbasis Hermite Density:
        P|s>                     ...  0.000
        P|p>                     ...  0.000
        P|d>                     ...  0.000
        P|f>                     ...  0.000
        P|g>                     ...  0.000
        Building the Coulomb matrix: 
        J|ss>                          ... done (  0.0 sec) ndone=    12032 nskipped1=       25 nskipped2=      263
        J|ps>                          ... done (  0.0 sec) ndone=    11061 nskipped1=      195 nskipped2=      232
        J|pp>                          ... done (  0.0 sec) ndone=     4275 nskipped1=        0 nskipped2=       91
        J|ds>                          ... done (  0.0 sec) ndone=     2432 nskipped1=       10 nskipped2=        6
        J|dp>                          ... done (  0.0 sec) ndone=     1298 nskipped1=        0 nskipped2=        0
        J|dd>                          ... done (  0.0 sec) ndone=      177 nskipped1=        0 nskipped2=        0
        Coulomb matrix built in   0.0 sec

        Total time for Split-RI-J                ...    0.008 sec
          (0) Prelude                            ...    0.000 sec
          (1) Hermite density                    ...    0.000 sec
          (2) Aux basis density                  ...    0.000 sec (inner=  0.0)
          (3) Linear equation solution           ...    0.000 sec
          (4) J-Matrix construction              ...    0.003 sec (inner=  0.0)
        ---------------------------------------------------------
                      *** Initiating the SOSCF procedure ***
                           *** Shutting down DIIS ***
                      *** Re-Reading the Fockian *** 
                      *** Removing any level shift *** 

                         ----------------------------
                         !        ITERATION    10   !
                         ----------------------------
   Total Energy        :    -237.799952374435 Eh
   Energy Change       :      -0.000104523011 Eh
   MAX-DP              :       0.020993412577
   RMS-DP              :       0.001735263036
   Orbital gradient    :       0.002783588258
   Orbital Rotation    :       0.002783588258
   Actual Damping      :       0.0000
   Int. Num. El.       :    27.97239463 (UP=   13.98619731 DN=   13.98619731)
   Exchange            :   -18.99731455
   Correlation         :    -1.05686487

               *** Restarting incremental Fock matrix formation ***
==>> SHARK/AuxDens: NDens=1 Thresh =     2.500000e-11 TCut=    2.500000e-12 Lmax=2 LmaxAux=4
    -> Making Hermite density - ok     0.001 sec
    -> Making Aux-basis density - (lmax=2)
    -> L=0 0:    0.002 sec done=      1672 (100.0%) skipped=         0 
    -> L=1 0:    0.002 sec done=      1672 ( 97.8%) skipped=        38 
    -> L=1 1:    0.081 sec done=       570 (100.0%) skipped=         0 
    -> L=2 0:    0.001 sec done=       684 (100.0%) skipped=         0 
    -> L=2 1:    0.000 sec done=       380 (100.0%) skipped=         0 
    -> L=2 2:    0.000 sec done=       114 (100.0%) skipped=         0 
    -> Aux basis density formed in    0.1 sec
    -> Solving linear equations - ok (   0.0 sec)
        Auxbasis Hermite Density:
        P|s>                     ...  0.000
        P|p>                     ...  0.000
        P|d>                     ...  0.000
        P|f>                     ...  0.000
        P|g>                     ...  0.000
        Building the Coulomb matrix: 
        J|ss>                          ... done (  0.0 sec) ndone=    12118 nskipped1=        0 nskipped2=      272
        J|ps>                          ... done (  0.0 sec) ndone=    11139 nskipped1=      110 nskipped2=      339
        J|pp>                          ... done (  0.0 sec) ndone=     4275 nskipped1=        0 nskipped2=       91
        J|ds>                          ... done (  0.0 sec) ndone=     2467 nskipped1=        0 nskipped2=       11
        J|dp>                          ... done (  0.0 sec) ndone=     1298 nskipped1=        0 nskipped2=        0
        J|dd>                          ... done (  0.0 sec) ndone=      177 nskipped1=        0 nskipped2=        0
        Coulomb matrix built in   0.0 sec

        Total time for Split-RI-J                ...    0.090 sec
          (0) Prelude                            ...    0.000 sec
          (1) Hermite density                    ...    0.000 sec
          (2) Aux basis density                  ...    0.000 sec (inner=  0.0)
          (3) Linear equation solution           ...    0.000 sec
          (4) J-Matrix construction              ...    0.003 sec (inner=  0.0)
        ---------------------------------------------------------

                         ----------------------------
                         !        ITERATION    11   !
                         ----------------------------
   Total Energy        :    -237.800004751456 Eh
   Energy Change       :      -0.000052377020 Eh
   MAX-DP              :       0.028390981239
   RMS-DP              :       0.002481223459
   Orbital gradient    :       0.001474726764
   Orbital Rotation    :       0.011140123838
   Actual Damping      :       0.0000
   Int. Num. El.       :    27.97229740 (UP=   13.98614870 DN=   13.98614870)
   Exchange            :   -18.99647668
   Correlation         :    -1.05680441

==>> SHARK/AuxDens: NDens=1 Thresh =     2.500000e-11 TCut=    2.500000e-12 Lmax=2 LmaxAux=4
    -> Making Hermite density - ok     0.001 sec
    -> Making Aux-basis density - (lmax=2)
    -> L=0 0:    0.001 sec done=      1618 ( 96.8%) skipped=        54 
    -> L=1 0:    0.002 sec done=      1668 ( 97.5%) skipped=        42 
    -> L=1 1:    0.001 sec done=       570 (100.0%) skipped=         0 
    -> L=2 0:    0.000 sec done=       646 ( 94.4%) skipped=        38 
    -> L=2 1:    0.000 sec done=       380 (100.0%) skipped=         0 
    -> L=2 2:    0.000 sec done=       114 (100.0%) skipped=         0 
    -> Aux basis density formed in    0.0 sec
    -> Solving linear equations - ok (   0.0 sec)
        Auxbasis Hermite Density:
        P|s>                     ...  0.000
        P|p>                     ...  0.000
        P|d>                     ...  0.000
        P|f>                     ...  0.000
        P|g>                     ...  0.000
        Building the Coulomb matrix: 
        J|ss>                          ... done (  0.0 sec) ndone=    12052 nskipped1=       15 nskipped2=      263
        J|ps>                          ... done (  0.0 sec) ndone=    11093 nskipped1=      190 nskipped2=      235
        J|pp>                          ... done (  0.0 sec) ndone=     4275 nskipped1=        0 nskipped2=       91
        J|ds>                          ... done (  0.0 sec) ndone=     2467 nskipped1=        0 nskipped2=       11
        J|dp>                          ... done (  0.0 sec) ndone=     1298 nskipped1=        0 nskipped2=        0
        J|dd>                          ... done (  0.0 sec) ndone=      177 nskipped1=        0 nskipped2=        0
        Coulomb matrix built in   0.0 sec

        Total time for Split-RI-J                ...    0.010 sec
          (0) Prelude                            ...    0.000 sec
          (1) Hermite density                    ...    0.000 sec
          (2) Aux basis density                  ...    0.000 sec (inner=  0.0)
          (3) Linear equation solution           ...    0.000 sec
          (4) J-Matrix construction              ...    0.004 sec (inner=  0.0)
        ---------------------------------------------------------

                         ----------------------------
                         !        ITERATION    12   !
                         ----------------------------
   Total Energy        :    -237.800050762076 Eh
   Energy Change       :      -0.000046010620 Eh
   MAX-DP              :       0.022368553727
   RMS-DP              :       0.001756411101
   Orbital gradient    :       0.000573621285
   Orbital Rotation    :       0.006931094161
   Actual Damping      :       0.0000
   Int. Num. El.       :    27.97217059 (UP=   13.98608529 DN=   13.98608529)
   Exchange            :   -18.99661881
   Correlation         :    -1.05676306

==>> SHARK/AuxDens: NDens=1 Thresh =     2.500000e-11 TCut=    2.500000e-12 Lmax=2 LmaxAux=4
    -> Making Hermite density - ok     0.001 sec
    -> Making Aux-basis density - (lmax=2)
    -> L=0 0:    0.002 sec done=      1640 ( 98.1%) skipped=        32 
    -> L=1 0:    0.002 sec done=      1634 ( 95.6%) skipped=        76 
    -> L=1 1:    0.081 sec done=       570 (100.0%) skipped=         0 
    -> L=2 0:    0.000 sec done=       652 ( 95.3%) skipped=        32 
    -> L=2 1:    0.000 sec done=       380 (100.0%) skipped=         0 
    -> L=2 2:    0.000 sec done=       114 (100.0%) skipped=         0 
    -> Aux basis density formed in    0.1 sec
    -> Solving linear equations - ok (   0.0 sec)
        Auxbasis Hermite Density:
        P|s>                     ...  0.000
        P|p>                     ...  0.000
        P|d>                     ...  0.000
        P|f>                     ...  0.000
        P|g>                     ...  0.000
        Building the Coulomb matrix: 
        J|ss>                          ... done (  0.0 sec) ndone=    12022 nskipped1=       40 nskipped2=      263
        J|ps>                          ... done (  0.0 sec) ndone=    11056 nskipped1=      200 nskipped2=      232
        J|pp>                          ... done (  0.0 sec) ndone=     4275 nskipped1=        0 nskipped2=       91
        J|ds>                          ... done (  0.0 sec) ndone=     2432 nskipped1=       10 nskipped2=        6
        J|dp>                          ... done (  0.0 sec) ndone=     1298 nskipped1=        0 nskipped2=        0
        J|dd>                          ... done (  0.0 sec) ndone=      177 nskipped1=        0 nskipped2=        0
        Coulomb matrix built in   0.0 sec

        Total time for Split-RI-J                ...    0.090 sec
          (0) Prelude                            ...    0.000 sec
          (1) Hermite density                    ...    0.000 sec
          (2) Aux basis density                  ...    0.000 sec (inner=  0.0)
          (3) Linear equation solution           ...    0.000 sec
          (4) J-Matrix construction              ...    0.003 sec (inner=  0.0)
        ---------------------------------------------------------

                         ----------------------------
                         !        ITERATION    13   !
                         ----------------------------
   Total Energy        :    -237.800059722070 Eh
   Energy Change       :      -0.000008959994 Eh
   MAX-DP              :       0.001740044186
   RMS-DP              :       0.000120434870
   Orbital gradient    :       0.000229003042
   Orbital Rotation    :       0.000400192493
   Actual Damping      :       0.0000
   Int. Num. El.       :    27.97206649 (UP=   13.98603325 DN=   13.98603325)
   Exchange            :   -18.99640511
   Correlation         :    -1.05671885

==>> SHARK/AuxDens: NDens=1 Thresh =     2.500000e-11 TCut=    2.500000e-12 Lmax=2 LmaxAux=4
    -> Making Hermite density - ok     0.001 sec
    -> Making Aux-basis density - (lmax=2)
    -> L=0 0:    0.001 sec done=      1596 ( 95.5%) skipped=        76 
    -> L=1 0:    0.002 sec done=      1631 ( 95.4%) skipped=        79 
    -> L=1 1:    0.081 sec done=       570 (100.0%) skipped=         0 
    -> L=2 0:    0.000 sec done=       646 ( 94.4%) skipped=        38 
    -> L=2 1:    0.000 sec done=       380 (100.0%) skipped=         0 
    -> L=2 2:    0.000 sec done=       114 (100.0%) skipped=         0 
    -> Aux basis density formed in    0.1 sec
    -> Solving linear equations - ok (   0.0 sec)
        Auxbasis Hermite Density:
        P|s>                     ...  0.000
        P|p>                     ...  0.000
        P|d>                     ...  0.000
        P|f>                     ...  0.000
        P|g>                     ...  0.000
        Building the Coulomb matrix: 
        J|ss>                          ... done (  0.0 sec) ndone=    11847 nskipped1=      155 nskipped2=      263
        J|ps>                          ... done (  0.0 sec) ndone=    10990 nskipped1=      235 nskipped2=      228
        J|pp>                          ... done (  0.0 sec) ndone=     4275 nskipped1=        0 nskipped2=       91
        J|ds>                          ... done (  0.0 sec) ndone=     2367 nskipped1=       45 nskipped2=        1
        J|dp>                          ... done (  0.0 sec) ndone=     1298 nskipped1=        0 nskipped2=        0
        J|dd>                          ... done (  0.0 sec) ndone=      177 nskipped1=        0 nskipped2=        0
        Coulomb matrix built in   0.0 sec

        Total time for Split-RI-J                ...    0.089 sec
          (0) Prelude                            ...    0.000 sec
          (1) Hermite density                    ...    0.000 sec
          (2) Aux basis density                  ...    0.000 sec (inner=  0.0)
          (3) Linear equation solution           ...    0.000 sec
          (4) J-Matrix construction              ...    0.003 sec (inner=  0.0)
        ---------------------------------------------------------

                         ----------------------------
                         !        ITERATION    14   !
                         ----------------------------
   Total Energy        :    -237.800059968728 Eh
   Energy Change       :      -0.000000246658 Eh
   MAX-DP              :       0.000697836808
   RMS-DP              :       0.000054765776
   Orbital gradient    :       0.000205423659
   Orbital Rotation    :       0.000151194037
   Actual Damping      :       0.0000
   Int. Num. El.       :    27.97207083 (UP=   13.98603541 DN=   13.98603541)
   Exchange            :   -18.99694831
   Correlation         :    -1.05674290

==>> SHARK/AuxDens: NDens=1 Thresh =     2.500000e-11 TCut=    2.500000e-12 Lmax=2 LmaxAux=4
    -> Making Hermite density - ok     0.000 sec
    -> Making Aux-basis density - (lmax=2)
    -> L=0 0:    0.001 sec done=      1602 ( 95.8%) skipped=        70 
    -> L=1 0:    0.001 sec done=      1597 ( 93.4%) skipped=       113 
    -> L=1 1:    0.001 sec done=       570 (100.0%) skipped=         0 
    -> L=2 0:    0.000 sec done=       646 ( 94.4%) skipped=        38 
    -> L=2 1:    0.000 sec done=       380 (100.0%) skipped=         0 
    -> L=2 2:    0.000 sec done=       114 (100.0%) skipped=         0 
    -> Aux basis density formed in    0.0 sec
    -> Solving linear equations - ok (   0.0 sec)
        Auxbasis Hermite Density:
        P|s>                     ...  0.000
        P|p>                     ...  0.000
        P|d>                     ...  0.000
        P|f>                     ...  0.000
        P|g>                     ...  0.000
        Building the Coulomb matrix: 
        J|ss>                          ... done (  0.0 sec) ndone=    11724 nskipped1=      210 nskipped2=      221
        J|ps>                          ... done (  0.0 sec) ndone=    10868 nskipped1=      312 nskipped2=      220
        J|pp>                          ... done (  0.0 sec) ndone=     4270 nskipped1=        5 nskipped2=       91
        J|ds>                          ... done (  0.0 sec) ndone=     2268 nskipped1=      110 nskipped2=        0
        J|dp>                          ... done (  0.0 sec) ndone=     1298 nskipped1=        0 nskipped2=        0
        J|dd>                          ... done (  0.0 sec) ndone=      177 nskipped1=        0 nskipped2=        0
        Coulomb matrix built in   0.0 sec

        Total time for Split-RI-J                ...    0.009 sec
          (0) Prelude                            ...    0.000 sec
          (1) Hermite density                    ...    0.000 sec
          (2) Aux basis density                  ...    0.000 sec (inner=  0.0)
          (3) Linear equation solution           ...    0.000 sec
          (4) J-Matrix construction              ...    0.004 sec (inner=  0.0)
        ---------------------------------------------------------

                         ----------------------------
                         !        ITERATION    15   !
                         ----------------------------
   Total Energy        :    -237.800060106238 Eh
   Energy Change       :      -0.000000137510 Eh
   MAX-DP              :       0.000384641557
   RMS-DP              :       0.000023264879
   Orbital gradient    :       0.000067797914
   Orbital Rotation    :       0.000056941563
   Actual Damping      :       0.0000
   Int. Num. El.       :    27.97207100 (UP=   13.98603550 DN=   13.98603550)
   Exchange            :   -18.99650371
   Correlation         :    -1.05672829

==>> SHARK/AuxDens: NDens=1 Thresh =     2.500000e-11 TCut=    2.500000e-12 Lmax=2 LmaxAux=4
    -> Making Hermite density - ok     0.001 sec
    -> Making Aux-basis density - (lmax=2)
    -> L=0 0:    0.002 sec done=      1584 ( 94.7%) skipped=        88 
    -> L=1 0:    0.002 sec done=      1602 ( 93.7%) skipped=       108 
    -> L=1 1:    0.001 sec done=       570 (100.0%) skipped=         0 
    -> L=2 0:    0.001 sec done=       646 ( 94.4%) skipped=        38 
    -> L=2 1:    0.081 sec done=       380 (100.0%) skipped=         0 
    -> L=2 2:    0.000 sec done=       114 (100.0%) skipped=         0 
    -> Aux basis density formed in    0.1 sec
    -> Solving linear equations - ok (   0.0 sec)
        Auxbasis Hermite Density:
        P|s>                     ...  0.000
        P|p>                     ...  0.000
        P|d>                     ...  0.000
        P|f>                     ...  0.000
        P|g>                     ...  0.000
        Building the Coulomb matrix: 
        J|ss>                          ... done (  0.0 sec) ndone=    11737 nskipped1=      255 nskipped2=      253
        J|ps>                          ... done (  0.0 sec) ndone=    10869 nskipped1=      327 nskipped2=      226
[...]
CPCM Dielectric    :           -4.68777727 Eh            -127.56090 eV

Virial components:
Potential Energy   :         -476.11884201 Eh          -12955.85235 eV
Kinetic Energy     :          238.15071989 Eh            6480.41055 eV
Virial Ratio       :            1.99923327


DFT components:
N(Alpha)           :       13.991723881622 electrons
N(Beta)            :       13.991723881622 electrons
N(Total)           :       27.983447763244 electrons
E(X)               :      -18.993898997906 Eh       
E(C)               :       -1.044048602820 Eh       
E(XC)              :      -20.037947600726 Eh       
DFET-embed. en.    :        0.000000000000 Eh       
CPCM Solvation Model Properties:
Surface-charge          :            7.47226938
Charge-correction       :           -0.51749467 Eh             -14.08175 eV
Free-energy (cav+disp)  :  This term is not implemented in the current solvation scheme

---------------
SCF CONVERGENCE
---------------

  Last Energy change         ...   -2.1734e-10  Tolerance :   1.0000e-08
  Last MAX-Density change    ...    2.6645e-15  Tolerance :   1.0000e-07
  Last RMS-Density change    ...    1.6693e-16  Tolerance :   5.0000e-09
  Last Orbital Gradient      ...    1.8160e-07  Tolerance :   1.0000e-05
  Last Orbital Rotation      ...    1.1088e-07  Tolerance :   1.0000e-05

             **** THE GBW FILE WAS UPDATED (NaOH_DFT.gbw) ****
             **** DENSITY NaOH_DFT.scfp WAS UPDATED ****
             **** ENERGY FILE WAS UPDATED (NaOH_DFT.en.tmp) ****
             **** THE GBW FILE WAS UPDATED (NaOH_DFT.gbw) ****
             **** DENSITY NaOH_DFT.scfp WAS UPDATED ****
----------------
ORBITAL ENERGIES
----------------

  NO   OCC          E(Eh)            E(eV) 
   0   2.0000     -38.062223     -1035.7257 
   1   2.0000     -18.901291      -514.3303 
   2   2.0000      -1.859426       -50.5976 
   3   2.0000      -0.793367       -21.5886 
   4   2.0000      -0.793351       -21.5882 
   5   2.0000      -0.793351       -21.5882 
   6   2.0000      -0.718526       -19.5521 
   7   2.0000      -0.239154        -6.5077 
   8   2.0000      -0.096024        -2.6129 
   9   2.0000      -0.095922        -2.6102 
  10   2.0000      -0.059567        -1.6209 
  11   2.0000       0.021939         0.5970 
  12   2.0000       0.023159         0.6302 
  13   2.0000       0.023165         0.6303 
  14   0.0000       0.148400         4.0382 
  15   0.0000       0.197233         5.3670 
  16   0.0000       0.383003        10.4220 
  17   0.0000       0.383131        10.4255 
  18   0.0000       0.383134        10.4256 
  19   0.0000       0.383182        10.4269 
  20   0.0000       0.383186        10.4270 
  21   0.0000       0.717033        19.5115 
  22   0.0000       1.041614        28.3437 
  23   0.0000       1.072657        29.1885 
  24   0.0000       1.072845        29.1936 
  25   0.0000       1.199134        32.6301 
  26   0.0000       1.573914        42.8284 
  27   0.0000       1.573954        42.8295 
  28   0.0000       2.341313        63.7104 
  29   0.0000       2.861290        77.8596 
  30   0.0000       2.861412        77.8630 
  31   0.0000       3.162015        86.0428 
  32   0.0000       3.162122        86.0457 
  33   0.0000       3.859284       105.0165 

                    ********************************
                    * MULLIKEN POPULATION ANALYSIS *
                    ********************************

-----------------------
MULLIKEN ATOMIC CHARGES
-----------------------
   0 O :   -1.013105
   1 H :    0.005575
   2 Na:   -6.992469
Sum of atomic charges:   -8.0000000

--------------------------------
MULLIKEN REDUCED ORBITAL CHARGES
--------------------------------
  0 O s       :     3.846173  s :     3.846173
      pz      :     1.826288  p :     5.161274
      px      :     1.656532
      py      :     1.678454
      dz2     :     0.000472  d :     0.005659
      dxz     :     0.001266
      dyz     :     0.001187
      dx2y2   :     0.000484
      dxy     :     0.002249
  1 H s       :     0.930132  s :     0.930132
      pz      :     0.020569  p :     0.064293
      px      :     0.021957
      py      :     0.021767
  2 Nas       :     6.000692  s :     6.000692
      pz      :     3.997684  p :    11.991756
      px      :     3.998243
      py      :     3.995829
      dz2     :     0.000000  d :     0.000022
      dxz     :     0.000004
      dyz     :     0.000009
      dx2y2   :     0.000002
      dxy     :     0.000007

------------------------
MULLIKEN OVERLAP CHARGES
------------------------
B(  0-O ,  1-H ) :   0.4213 


                     *******************************
                     * LOEWDIN POPULATION ANALYSIS *
                     *******************************

----------------------
LOEWDIN ATOMIC CHARGES
----------------------
   0 O :   -0.936851
   1 H :   -0.073937
   2 Na:   -6.989213

-------------------------------
LOEWDIN REDUCED ORBITAL CHARGES
-------------------------------
  0 O s       :     3.690408  s :     3.690408
      pz      :     1.826725  p :     5.235535
      px      :     1.695755
      py      :     1.713054
      dz2     :     0.000513  d :     0.010908
      dxz     :     0.002652
      dyz     :     0.002470
      dx2y2   :     0.000123
      dxy     :     0.005150
  1 H s       :     0.880713  s :     0.880713
      pz      :     0.060612  p :     0.193224
      px      :     0.066605
      py      :     0.066007
  2 Nas       :     5.997575  s :     5.997575
      pz      :     3.997645  p :    11.991617
      px      :     3.998211
      py      :     3.995761
      dz2     :     0.000000  d :     0.000021
      dxz     :     0.000004
      dyz     :     0.000008
      dx2y2   :     0.000002
      dxy     :     0.000007

---------------------------------
LOEWDIN BOND ORDERS (THRESH 0.050000)
---------------------------------
B(  0-O ,  1-H ) :   1.3057 

------------------------------------------
LOEWDIN REDUCED ORBITAL POPULATIONS PER MO
-------------------------------------------
THRESHOLD FOR PRINTING IS 0.1%
                      0         1         2         3         4         5   
                 -38.06222 -18.90129  -1.85943  -0.79337  -0.79335  -0.79335
                   2.00000   2.00000   2.00000   2.00000   2.00000   2.00000
                  --------  --------  --------  --------  --------  --------
 0 O  s               0.0      99.9       0.0       0.0       0.0       0.0
 2 Na s             100.0       0.0     100.0       0.0       0.0       0.0
 2 Na pz              0.0       0.0       0.0      27.5      62.2      10.4
 2 Na px              0.0       0.0       0.0      22.5      34.1      43.4
 2 Na py              0.0       0.0       0.0      50.0       3.7      46.3

                      6         7         8         9        10        11   
                  -0.71853  -0.23915  -0.09602  -0.09592  -0.05957   0.02194
                   2.00000   2.00000   2.00000   2.00000   2.00000   2.00000
                  --------  --------  --------  --------  --------  --------
 0 O  s              69.9      14.5       0.0       0.0       0.1       0.1
 0 O  pz              0.4      12.8      16.3      61.7       0.1       0.0
 0 O  px              0.8      27.2      56.6       0.1       0.1       0.0
 0 O  py              0.8      25.2      24.1      35.5       0.1       0.0
 0 O  dxz             0.0       0.1       0.0       0.0       0.0       0.0
 0 O  dyz             0.0       0.1       0.0       0.0       0.0       0.0
 0 O  dxy             0.0       0.2       0.0       0.0       0.0       0.0
 1 H  s              24.1      19.4       0.0       0.0       0.2       0.3
 1 H  pz              0.8       0.0       0.5       1.7       0.0       0.0
 1 H  px              1.7       0.0       1.6       0.0       0.0       0.0
 1 H  py              1.6       0.0       0.7       1.0       0.0       0.0
 2 Na s               0.0       0.2       0.2       0.0      99.4       0.0
 2 Na pz              0.0       0.0       0.0       0.0       0.0      28.7
 2 Na px              0.0       0.0       0.0       0.0       0.0      19.4
 2 Na py              0.0       0.1       0.0       0.0       0.0      51.3

                     12        13        14        15        16        17   
                   0.02316   0.02316   0.14840   0.19723   0.38300   0.38313
                   2.00000   2.00000   0.00000   0.00000   0.00000   0.00000
                  --------  --------  --------  --------  --------  --------
 0 O  s               0.0       0.0       4.9       0.1       0.0       0.0
 0 O  pz              0.0       0.0       2.3       0.2       0.0       0.0
 0 O  px              0.0       0.0       4.9       0.2       0.0       0.0
 0 O  py              0.0       0.0       4.5       0.3       0.0       0.0
 1 H  s               0.0       0.0      70.1       1.9       0.0       0.0
 1 H  pz              0.0       0.0       1.9       0.1       0.0       0.0
 1 H  px              0.0       0.0       4.1       0.2       0.0       0.0
 1 H  py              0.0       0.0       3.8       0.1       0.0       0.0
 2 Na s               0.0       0.0       3.0      96.9       0.0       0.0
 2 Na pz             49.4      21.8       0.1       0.0       0.0       0.0
 2 Na px             49.8      30.7       0.1       0.0       0.0       0.0
 2 Na py              0.8      47.6       0.2       0.0       0.0       0.0
 2 Na dz2             0.0       0.0       0.0       0.0       0.7      37.1
 2 Na dxz             0.0       0.0       0.0       0.0      18.5       0.5
 2 Na dyz             0.0       0.0       0.0       0.0      41.0      25.6
 2 Na dx2y2           0.0       0.0       0.0       0.0       6.5      21.6
 2 Na dxy             0.0       0.0       0.0       0.0      33.4      15.3

                     18        19        20        21        22        23   
                   0.38313   0.38318   0.38319   0.71703   1.04161   1.07266
                   0.00000   0.00000   0.00000   0.00000   0.00000   0.00000
                  --------  --------  --------  --------  --------  --------
 0 O  s               0.0       0.0       0.0       0.7      36.2       0.0
 0 O  pz              0.0       0.0       0.0       2.7      10.6      46.7
 0 O  px              0.0       0.0       0.0       5.7      28.3       3.7
 0 O  py              0.0       0.0       0.0       5.2      21.7      47.9
 0 O  dz2             0.0       0.0       0.0       0.3       0.0       0.0
 0 O  dxz             0.0       0.0       0.0       1.7       0.2       0.0
 0 O  dyz             0.0       0.0       0.0       1.6       0.2       0.0
 0 O  dxy             0.0       0.0       0.0       3.3       0.3       0.0
 1 H  s               0.0       0.0       0.0      65.6       1.3       0.0
 1 H  pz              0.0       0.0       0.0       2.6       0.2       0.8
 1 H  px              0.0       0.0       0.0       5.6       0.4       0.1
 1 H  py              0.0       0.0       0.0       5.1       0.3       0.8
 2 Na s               0.0       0.0       0.0       0.0       0.2       0.0
 2 Na dz2            10.4      51.7       0.0       0.0       0.0       0.0
 2 Na dxz            49.1       9.0      23.0       0.0       0.0       0.0
 2 Na dyz             7.7      14.5      11.2       0.0       0.0       0.0
 2 Na dx2y2          14.4       3.4      54.1       0.0       0.0       0.0
 2 Na dxy            18.3      21.4      11.7       0.0       0.0       0.0

                     24        25        26        27        28        29   
                   1.07285   1.19913   1.57391   1.57395   2.34131   2.86129
                   0.00000   0.00000   0.00000   0.00000   0.00000   0.00000
                  --------  --------  --------  --------  --------  --------
 0 O  s               0.1      62.3       0.0       0.0       6.2       0.0
 0 O  pz             33.5       5.8       2.5       0.7       2.3       0.0
 0 O  px             50.7      12.4       0.0       2.3       5.0       0.0
 0 O  py             14.0      11.5       1.4       1.0       4.6       0.0
 0 O  dz2             0.0       0.3       4.0       1.1       0.8      48.4
 0 O  dxz             0.0       1.6       3.0       0.1       4.9       9.0
 0 O  dyz             0.0       1.5       0.5       2.5       4.5       6.8
 0 O  dx2y2           0.0       0.0       1.7       6.9       0.0       0.1
 0 O  dxy             0.0       3.1       1.5       0.3       9.5      35.7
 1 H  s               0.0       1.4       0.0       0.0       1.6       0.0
 1 H  pz              0.6       0.1      53.8      14.6      11.9       0.0
 1 H  px              0.9       0.1       0.1      49.6      25.3       0.0
 1 H  py              0.2       0.1      31.3      21.0      23.4       0.0

                     30        31        32        33   
                   2.86141   3.16202   3.16212   3.85928
                   0.00000   0.00000   0.00000   0.00000
                  --------  --------  --------  --------
 0 O  s               0.0       0.0       0.0       5.2
 0 O  pz              0.0       0.4       0.0       0.9
 0 O  px              0.0       0.1       0.2       1.9
 0 O  py              0.0       0.0       0.3       1.8
 0 O  dz2             0.0      42.1       0.2       2.8
 0 O  dxz            37.8      15.5      10.0      16.2
 0 O  dyz            42.5      17.3       7.6      15.0
 0 O  dx2y2          19.6       0.5      71.1       0.0
 0 O  dxy             0.1      13.9       0.3      31.7
 1 H  s               0.0       0.0       0.0      14.1
 1 H  pz              0.0       8.3       0.0       2.1
 1 H  px              0.0       1.4       4.7       4.4
 1 H  py              0.0       0.7       5.6       4.1


                      *****************************
                      * MAYER POPULATION ANALYSIS *
                      *****************************

  NA   - Mulliken gross atomic population
  ZA   - Total nuclear charge
  QA   - Mulliken gross atomic charge
  VA   - Mayer's total valence
  BVA  - Mayer's bonded valence
  FA   - Mayer's free valence

  ATOM       NA         ZA         QA         VA         BVA        FA
  0 O      9.0131     8.0000    -1.0131     1.0426     1.0426    -0.0000
  1 H      0.9944     1.0000     0.0056     1.0547     1.0547    -0.0000
  2 Na    17.9925    11.0000    -6.9925     0.0207     0.0207    -0.0000

  Mayer bond orders larger than 0.100000
B(  0-O ,  1-H ) :   1.0383 

-------
TIMINGS
-------

Total SCF time: 0 days 0 hours 0 min 8 sec 

Total time                  ....       8.311 sec
Sum of individual times     ....       7.591 sec  ( 91.3%)

Fock matrix formation       ....       6.774 sec  ( 81.5%)
  Split-RI-J                ....       0.361 sec  (  5.3% of F)
  Chain of spheres X        ....       3.769 sec  ( 55.6% of F)
  XC integration            ....       1.214 sec  ( 17.9% of F)
    Basis function eval.    ....       0.389 sec  ( 32.0% of XC)
    Density eval.           ....       0.207 sec  ( 17.0% of XC)
    XC-Functional eval.     ....       0.161 sec  ( 13.3% of XC)
    XC-Potential eval.      ....       0.178 sec  ( 14.6% of XC)
Diagonalization             ....       0.001 sec  (  0.0%)
Density matrix formation    ....       0.000 sec  (  0.0%)
Population analysis         ....       0.097 sec  (  1.2%)
Initial guess               ....       0.002 sec  (  0.0%)
Orbital Transformation      ....       0.000 sec  (  0.0%)
Orbital Orthonormalization  ....       0.001 sec  (  0.0%)
DIIS solution               ....       0.000 sec  (  0.0%)
SOSCF solution              ....       0.003 sec  (  0.0%)
Grid generation             ....       0.714 sec  (  8.6%)

Maximum memory used throughout the entire SCF-calculation: 44.4 MB

-------------------------   --------------------
FINAL SINGLE POINT ENERGY      -237.968122119820
-------------------------   --------------------

                                *** OPTIMIZATION RUN DONE ***

                            ***************************************
                            *     ORCA property calculations      *
                            ***************************************

                                    ---------------------
                                    Active property flags
                                    ---------------------
   (+) Dipole Moment


------------------------------------------------------------------------------
                       ORCA ELECTRIC PROPERTIES CALCULATION
------------------------------------------------------------------------------

Dipole Moment Calculation                       ... on
Quadrupole Moment Calculation                   ... off
Polarizability Calculation                      ... off
GBWName                                         ... NaOH_DFT.gbw
Electron density                                ... NaOH_DFT.scfp
SHARK General Contraction Test:  Segmented basis detected
   -> Pre-screening matrix found on disk - Trying to read with NShells=16
   -> Passing Pre-screening matrix on to SHARK ...ok
   -> Leaving CheckPreScreeningMatrix
----------------------
SHARK INTEGRAL PACKAGE
----------------------

Number of atoms                             ...      3
Number of basis functions                   ...     34
Number of shells                            ...     16
Maximum angular momentum                    ...      2
Integral batch strategy                     ... SHARK/LIBINT Hybrid
RI-J (if used) integral strategy            ... SPLIT-RIJ (Revised 2003 algorithm where possible)
Printlevel                                  ...      2
Contraction scheme used                     ... SEGMENTED contraction
Coulomb Range Separation                    ... NOT USED
Exchange Range Separation                   ... NOT USED
Finite Nucleus Model                        ... NOT USED
Auxiliary Coulomb fitting basis             ... AVAILABLE
   # of basis functions in Aux-J            ...    116
   # of shells in Aux-J                     ...     38
   Maximum angular momentum in Aux-J        ...      4
Auxiliary J/K fitting basis                 ... NOT available
Auxiliary Correlation fitting basis         ... NOT available
Auxiliary 'external' fitting basis          ... NOT available
Integral threshold                          ...     2.500000e-11
Primitive cut-off                           ...     2.500000e-12
Primitive pair pre-selection threshold      ...     2.500000e-12

The origin for moment calculation is the CENTER OF MASS  = ( 1.030383, -2.142369  1.620413)

-------------
DIPOLE MOMENT
-------------
                                X             Y             Z
Electronic contribution:      8.87901      14.01768     -10.45342
Nuclear contribution   :      2.94283       4.26129      -3.15853
                        -----------------------------------------
Total Dipole Moment    :     11.82184      18.27897     -13.61194
                        -----------------------------------------
Magnitude (a.u.)       :     25.67414
Magnitude (Debye)      :     65.25849



--------------------
Rotational spectrum 
--------------------
 
Rotational constants in cm-1:   362.071661     0.055391     0.055382 
Rotational constants in MHz : 10854635.314384  1660.575311  1660.321310 

 Dipole components along the rotational axes: 
x,y,z [a.u.] :    25.673986    -0.090195    -0.000200 
x,y,z [Debye]:    65.258086    -0.229258    -0.000509 

 

Timings for individual modules:

Sum of individual times         ...      566.524 sec (=   9.442 min)
GTO integral calculation        ...       20.941 sec (=   0.349 min)   3.7 %
SCF iterations                  ...      422.795 sec (=   7.047 min)  74.6 %
SCF Gradient evaluation         ...      117.783 sec (=   1.963 min)  20.8 %
Geometry relaxation             ...        5.005 sec (=   0.083 min)   0.9 %
                             ****ORCA TERMINATED NORMALLY****
TOTAL RUN TIME: 0 days 0 hours 9 minutes 46 seconds 292 msec
