
                                 *****************
                                 * O   R   C   A *
                                 *****************

                                            #,                                       
                                            ###                                      
                                            ####                                     
                                            #####                                    
                                            ######                                   
                                           ########,                                 
                                     ,,################,,,,,                         
                               ,,#################################,,                 
                          ,,##########################################,,             
                       ,#########################################, ''#####,          
                    ,#############################################,,   '####,        
                  ,##################################################,,,,####,       
                ,###########''''           ''''###############################       
              ,#####''   ,,,,##########,,,,          '''####'''          '####       
            ,##' ,,,,###########################,,,                        '##       
           ' ,,###''''                  '''############,,,                           
         ,,##''                                '''############,,,,        ,,,,,,###''
      ,#''                                            '''#######################'''  
     '                                                          ''''####''''         
             ,#######,   #######,   ,#######,      ##                                
            ,#'     '#,  ##    ##  ,#'     '#,    #''#        ######   ,####,        
            ##       ##  ##   ,#'  ##            #'  '#       #        #'  '#        
            ##       ##  #######   ##           ,######,      #####,   #    #        
            '#,     ,#'  ##    ##  '#,     ,#' ,#      #,         ##   #,  ,#        
             '#######'   ##     ##  '#######'  #'      '#     #####' # '####'        



                  #######################################################
                  #                        -***-                        #
                  #          Department of theory and spectroscopy      #
                  #    Directorship and core code : Frank Neese         #
                  #        Max Planck Institute fuer Kohlenforschung    #
                  #                Kaiser Wilhelm Platz 1               #
                  #                 D-45470 Muelheim/Ruhr               #
                  #                      Germany                        #
                  #                                                     #
                  #                  All rights reserved                #
                  #                        -***-                        #
                  #######################################################


                         Program Version 5.0.4 -  RELEASE  -


 With contributions from (in alphabetic order):
   Daniel Aravena         : Magnetic Suceptibility
   Michael Atanasov       : Ab Initio Ligand Field Theory (pilot matlab implementation)
   Alexander A. Auer      : GIAO ZORA, VPT2 properties, NMR spectrum
   Ute Becker             : Parallelization
   Giovanni Bistoni       : ED, misc. LED, open-shell LED, HFLD
   Martin Brehm           : Molecular dynamics
   Dmytro Bykov           : SCF Hessian
   Vijay G. Chilkuri      : MRCI spin determinant printing, contributions to CSF-ICE
   Dipayan Datta          : RHF DLPNO-CCSD density
   Achintya Kumar Dutta   : EOM-CC, STEOM-CC
   Dmitry Ganyushin       : Spin-Orbit,Spin-Spin,Magnetic field MRCI
   Miquel Garcia          : C-PCM and meta-GGA Hessian, CC/C-PCM, Gaussian charge scheme
   Yang Guo               : DLPNO-NEVPT2, F12-NEVPT2, CIM, IAO-localization
   Andreas Hansen         : Spin unrestricted coupled pair/coupled cluster methods
   Benjamin Helmich-Paris : MC-RPA, TRAH-SCF, COSX integrals
   Lee Huntington         : MR-EOM, pCC
   Robert Izsak           : Overlap fitted RIJCOSX, COSX-SCS-MP3, EOM
   Marcus Kettner         : VPT2
   Christian Kollmar      : KDIIS, OOCD, Brueckner-CCSD(T), CCSD density, CASPT2, CASPT2-K
   Simone Kossmann        : Meta GGA functionals, TD-DFT gradient, OOMP2, MP2 Hessian
   Martin Krupicka        : Initial AUTO-CI
   Lucas Lang             : DCDCAS
   Marvin Lechner         : AUTO-CI (C++ implementation), FIC-MRCC
   Dagmar Lenk            : GEPOL surface, SMD
   Dimitrios Liakos       : Extrapolation schemes; Compound Job, initial MDCI parallelization
   Dimitrios Manganas     : Further ROCIS development; embedding schemes
   Dimitrios Pantazis     : SARC Basis sets
   Anastasios Papadopoulos: AUTO-CI, single reference methods and gradients
   Taras Petrenko         : DFT Hessian,TD-DFT gradient, ASA, ECA, R-Raman, ABS, FL, XAS/XES, NRVS
   Peter Pinski           : DLPNO-MP2, DLPNO-MP2 Gradient
   Christoph Reimann      : Effective Core Potentials
   Marius Retegan         : Local ZFS, SOC
   Christoph Riplinger    : Optimizer, TS searches, QM/MM, DLPNO-CCSD(T), (RO)-DLPNO pert. Triples
   Tobias Risthaus        : Range-separated hybrids, TD-DFT gradient, RPA, STAB
   Michael Roemelt        : Original ROCIS implementation
   Masaaki Saitow         : Open-shell DLPNO-CCSD energy and density
   Barbara Sandhoefer     : DKH picture change effects
   Avijit Sen             : IP-ROCIS
   Kantharuban Sivalingam : CASSCF convergence, NEVPT2, FIC-MRCI
   Bernardo de Souza      : ESD, SOC TD-DFT
   Georgi Stoychev        : AutoAux, RI-MP2 NMR, DLPNO-MP2 response
   Willem Van den Heuvel  : Paramagnetic NMR
   Boris Wezisla          : Elementary symmetry handling
   Frank Wennmohs         : Technical directorship


 We gratefully acknowledge several colleagues who have allowed us to
 interface, adapt or use parts of their codes:
   Stefan Grimme, W. Hujo, H. Kruse, P. Pracht,  : VdW corrections, initial TS optimization,
                  C. Bannwarth, S. Ehlert          DFT functionals, gCP, sTDA/sTD-DF
   Ed Valeev, F. Pavosevic, A. Kumar             : LibInt (2-el integral package), F12 methods
   Garnet Chan, S. Sharma, J. Yang, R. Olivares  : DMRG
   Ulf Ekstrom                                   : XCFun DFT Library
   Mihaly Kallay                                 : mrcc  (arbitrary order and MRCC methods)
   Jiri Pittner, Ondrej Demel                    : Mk-CCSD
   Frank Weinhold                                : gennbo (NPA and NBO analysis)
   Christopher J. Cramer and Donald G. Truhlar   : smd solvation model
   Lars Goerigk                                  : TD-DFT with DH, B97 family of functionals
   V. Asgeirsson, H. Jonsson                     : NEB implementation
   FAccTs GmbH                                   : IRC, NEB, NEB-TS, DLPNO-Multilevel, CI-OPT
                                                   MM, QMMM, 2- and 3-layer-ONIOM, Crystal-QMMM,
                                                   LR-CPCM, SF, NACMEs, symmetry and pop. for TD-DFT,
                                                   nearIR, NL-DFT gradient (VV10), updates on ESD,
                                                   ML-optimized integration grids
   S Lehtola, MJT Oliveira, MAL Marques          : LibXC Library
   Liviu Ungur et al                             : ANISO software


 Your calculation uses the libint2 library for the computation of 2-el integrals
 For citations please refer to: http://libint.valeyev.net

 Your ORCA version has been built with support for libXC version: 5.1.0
 For citations please refer to: https://tddft.org/programs/libxc/

 This ORCA versions uses:
   CBLAS   interface :  Fast vector & matrix operations
   LAPACKE interface :  Fast linear algebra routines
   SCALAPACK package :  Parallel linear algebra routines
   Shared memory     :  Shared parallel matrices
   BLAS/LAPACK       :  OpenBLAS 0.3.15  USE64BITINT DYNAMIC_ARCH NO_AFFINITY SkylakeX SINGLE_THREADED
        Core in use  :  SkylakeX
   Copyright (c) 2011-2014, The OpenBLAS Project


================================================================================

----- Orbital basis set information -----
Your calculation utilizes the basis: def2-SVP
   F. Weigend and R. Ahlrichs, Phys. Chem. Chem. Phys. 7, 3297 (2005).

----- AuxJ basis set information -----
Your calculation utilizes the auxiliary basis: def2/J
   F. Weigend, Phys. Chem. Chem. Phys. 8, 1057 (2006).

================================================================================
                                        WARNINGS
                       Please study these warnings very carefully!
================================================================================


WARNING: Geometry Optimization
  ===> : Switching off AutoStart
         For restart on a previous wavefunction, please use MOREAD

INFO   : the flag for use of the SHARK integral package has been found!

================================================================================
                                       INPUT FILE
================================================================================
NAME = MgCl2_DFT.inp
|  1> ## avogadro generated ORCA input file 
|  2> # Advanced Mode
|  3> # 
|  4> ! B3LYP OPT def2-SVP NormalPrint defgrid2 NormalSCF 
|  5> 
|  6> ! CPCM
|  7> %cpcm
|  8> epsilon 69.0
|  9> refrac 1.34
| 10> end
| 11> 
| 12> %scf
| 13> 	MaxIter 125
| 14> 	CNVDIIS 1
| 15> 	CNVSOSCF 1 
| 16> end
| 17> 
| 18> * xyz -8 1
| 19>   Mg        0.98774        0.06875        0.01937
| 20>   Cl       -0.83482        0.76590        0.83902
| 21>   Cl        2.81029       -0.62841       -0.80029
| 22> *
| 23> 
| 24> 
| 25>                          ****END OF INPUT****
================================================================================

                       *****************************
                       * Geometry Optimization Run *
                       *****************************

Geometry optimization settings:
Update method            Update   .... BFGS
Choice of coordinates    CoordSys .... Z-matrix Internals
Initial Hessian          InHess   .... Almoef's Model

Convergence Tolerances:
Energy Change            TolE     ....  5.0000e-06 Eh
Max. Gradient            TolMAXG  ....  3.0000e-04 Eh/bohr
RMS Gradient             TolRMSG  ....  1.0000e-04 Eh/bohr
Max. Displacement        TolMAXD  ....  4.0000e-03 bohr
RMS Displacement         TolRMSD  ....  2.0000e-03 bohr
Strict Convergence                ....  False
------------------------------------------------------------------------------
                        ORCA OPTIMIZATION COORDINATE SETUP
------------------------------------------------------------------------------

The optimization will be done in new redundant internal coordinates
Making redundant internal coordinates   ...  (new redundants) done
Evaluating the initial hessian          ...  (Almloef) done
Evaluating the coordinates              ...  done
Calculating the B-matrix                .... done
Calculating the G-matrix                .... done
Diagonalizing the G-matrix              .... done
The first mode is                       ....    0
The number of degrees of freedom        ....    4

    -----------------------------------------------------------------
                    Redundant Internal Coordinates


    -----------------------------------------------------------------
         Definition                    Initial Value    Approx d2E/dq
    -----------------------------------------------------------------
      1. B(Cl  1,Mg  0)                  2.1165         0.983504   
      2. B(Cl  2,Mg  0)                  2.1165         0.983509   
      3. L(Cl  1,Mg  0,Cl  2, 2)       180.0004         0.704104   
      4. L(Cl  1,Mg  0,Cl  2, 1)       179.9996         0.704104   
    -----------------------------------------------------------------

Number of atoms                         .... 3
Number of degrees of freedom            .... 4

         *************************************************************
         *                GEOMETRY OPTIMIZATION CYCLE   1            *
         *************************************************************
---------------------------------
CARTESIAN COORDINATES (ANGSTROEM)
---------------------------------
  Mg     0.987740    0.068750    0.019370
  Cl    -0.834820    0.765900    0.839020
  Cl     2.810290   -0.628410   -0.800290

----------------------------
CARTESIAN COORDINATES (A.U.)
----------------------------
  NO LB      ZA    FRAG     MASS         X           Y           Z
   0 Mg   12.0000    0    24.305    1.866558    0.129919    0.036604
   1 Cl   17.0000    0    35.453   -1.577581    1.447341    1.585518
   2 Cl   17.0000    0    35.453    5.310678   -1.187523   -1.512329

--------------------------------
INTERNAL COORDINATES (ANGSTROEM)
--------------------------------
 Mg     0   0   0     0.000000000000     0.00000000     0.00000000
 Cl     1   0   0     2.116499279140     0.00000000     0.00000000
 Cl     1   2   0     2.116497834561   179.99953275     0.00000000

---------------------------
INTERNAL COORDINATES (A.U.)
---------------------------
 Mg     0   0   0     0.000000000000     0.00000000     0.00000000
 Cl     1   0   0     3.999604000216     0.00000000     0.00000000
 Cl     1   2   0     3.999601270357   179.99953275     0.00000000

---------------------
BASIS SET INFORMATION
---------------------
There are 2 groups of distinct atoms

 Group   1 Type Mg  : 10s7p1d contracted to 4s3p1d pattern {5311/511/1}
 Group   2 Type Cl  : 10s7p1d contracted to 4s3p1d pattern {5311/511/1}

Atom   0Mg   basis set group =>   1
Atom   1Cl   basis set group =>   2
Atom   2Cl   basis set group =>   2
---------------------------------
AUXILIARY/J BASIS SET INFORMATION
---------------------------------
There are 2 groups of distinct atoms

 Group   1 Type Mg  : 14s5p5d2f1g contracted to 8s4p4d1f1g pattern {71111111/2111/2111/2/1}
 Group   2 Type Cl  : 14s5p5d2f1g contracted to 8s4p3d1f1g pattern {71111111/2111/311/2/1}

Atom   0Mg   basis set group =>   1
Atom   1Cl   basis set group =>   2
Atom   2Cl   basis set group =>   2
------------------------------------------------------------------------------
                           ORCA GTO INTEGRAL CALCULATION
                           -- RI-GTO INTEGRALS CHOSEN --
------------------------------------------------------------------------------
------------------------------------------------------------------------------
                   ___                                                        
                  /   \      - P O W E R E D   B Y -                         
                 /     \                                                     
                 |  |  |   _    _      __       _____    __    __             
                 |  |  |  | |  | |    /  \     |  _  \  |  |  /  |          
                  \  \/   | |  | |   /    \    | | | |  |  | /  /          
                 / \  \   | |__| |  /  /\  \   | |_| |  |  |/  /          
                |  |  |   |  __  | /  /__\  \  |    /   |      \           
                |  |  |   | |  | | |   __   |  |    \   |  |\   \          
                \     /   | |  | | |  |  |  |  | |\  \  |  | \   \       
                 \___/    |_|  |_| |__|  |__|  |_| \__\ |__|  \__/        
                                                                              
                      - O R C A' S   B I G   F R I E N D -                    
                                      &                                       
                       - I N T E G R A L  F E E D E R -                       
                                                                              
 v1 FN, 2020, v2 2021                                                         
------------------------------------------------------------------------------


Reading SHARK input file MgCl2_DFT.SHARKINP.tmp ... SHARK General Contraction Test:  Segmented basis detected
   -> Pre-screening matrix *NOT* found on disk - recalculating with NShells=24
   -> Leaving CheckPreScreeningMatrix
ok
----------------------
SHARK INTEGRAL PACKAGE
----------------------

Number of atoms                             ...      3
Number of basis functions                   ...     54
Number of shells                            ...     24
Maximum angular momentum                    ...      2
Integral batch strategy                     ... SHARK/LIBINT Hybrid
RI-J (if used) integral strategy            ... SPLIT-RIJ (Revised 2003 algorithm where possible)
Printlevel                                  ...      2
Contraction scheme used                     ... SEGMENTED contraction
Coulomb Range Separation                    ... NOT USED
Exchange Range Separation                   ... NOT USED
Finite Nucleus Model                        ... NOT USED
Auxiliary Coulomb fitting basis             ... AVAILABLE
   # of basis functions in Aux-J            ...    158
   # of shells in Aux-J                     ...     52
   Maximum angular momentum in Aux-J        ...      4
Auxiliary J/K fitting basis                 ... NOT available
Auxiliary Correlation fitting basis         ... NOT available
Auxiliary 'external' fitting basis          ... NOT available
Integral threshold                          ...     2.500000e-11
Primitive cut-off                           ...     2.500000e-12
Primitive pair pre-selection threshold      ...     2.500000e-12

Calculating pre-screening integrals         ... done (  0.1 sec) Dimension = 24
Organizing shell pair data                  ... done (  0.0 sec)
Shell pair information
Total number of shell pairs                 ...       300
Shell pairs after pre-screening             ...       271
Total number of primitive shell pairs       ...      1554
Primitive shell pairs kept                  ...      1057
          la=0 lb=0:     68 shell pairs
          la=1 lb=0:     98 shell pairs
          la=1 lb=1:     42 shell pairs
          la=2 lb=0:     32 shell pairs
          la=2 lb=1:     25 shell pairs
          la=2 lb=2:      6 shell pairs

Calculating one electron integrals          ... done (  0.0 sec)
Calculating RI/J V-Matrix + Cholesky decomp.... done (  0.0 sec)
Calculating Nuclear repulsion               ... done (  0.0 sec) ENN=    138.138722863815 Eh

SHARK setup successfully completed in   0.5 seconds

Maximum memory used throughout the entire GTOINT-calculation: 9.0 MB
-------------------------------------------------------------------------------
                                 ORCA SCF
-------------------------------------------------------------------------------

------------
SCF SETTINGS
------------
Hamiltonian:
 Density Functional     Method          .... DFT(GTOs)
 Exchange Functional    Exchange        .... B88
   X-Alpha parameter    XAlpha          ....  0.666667
   Becke's b parameter  XBeta           ....  0.004200
 Correlation Functional Correlation     .... LYP
 LDA part of GGA corr.  LDAOpt          .... VWN-5
 Gradients option       PostSCFGGA      .... off
 Hybrid DFT is turned on
   Fraction HF Exchange ScalHFX         ....  0.200000
   Scaling of DF-GGA-X  ScalDFX         ....  0.720000
   Scaling of DF-GGA-C  ScalDFC         ....  0.810000
   Scaling of DF-LDA-C  ScalLDAC        ....  1.000000
   Perturbative correction              ....  0.000000
   Density functional embedding theory  .... OFF
   NL short-range parameter             ....  4.800000
 RI-approximation to the Coulomb term is turned on
   Number of AuxJ basis functions       .... 158
   RIJ-COSX (HFX calculated with COS-X)).... on


General Settings:
 Integral files         IntName         .... MgCl2_DFT
 Hartree-Fock type      HFTyp           .... RHF
 Total Charge           Charge          ....   -8
 Multiplicity           Mult            ....    1
 Number of Electrons    NEL             ....   54
 Basis Dimension        Dim             ....   54
 Nuclear Repulsion      ENuc            ....    138.1387228638 Eh

Convergence Acceleration:
 DIIS                   CNVDIIS         .... on
   Start iteration      DIISMaxIt       ....    12
   Startup error        DIISStart       ....  0.200000
   # of expansion vecs  DIISMaxEq       ....     5
   Bias factor          DIISBfac        ....   1.050
   Max. coefficient     DIISMaxC        ....  10.000
 Trust-Rad. Augm. Hess. CNVTRAH         .... auto
   Auto Start mean grad. ratio tolernc. ....  1.125000
   Auto Start start iteration           ....    20
   Auto Start num. interpolation iter.  ....    10
   Max. Number of Micro iterations      ....    16
   Max. Number of Macro iterations      .... Maxiter - #DIIS iter
   Number of Davidson start vectors     ....     2
   Converg. threshold I  (grad. norm)   ....   1.000e-05
   Converg. threshold II (energy diff.) ....   1.000e-08
   Grad. Scal. Fac. for Micro threshold ....   0.100
   Minimum threshold for Micro iter.    ....   0.010
   NR start threshold (gradient norm)   ....   0.001
   Initial trust radius                 ....   0.400
   Minimum AH scaling param. (alpha)    ....   1.000
   Maximum AH scaling param. (alpha)    .... 1000.000
   Orbital update algorithm             .... Taylor
   White noise on init. David. guess    .... on
   Maximum white noise                  ....   0.010
   Quad. conv. algorithm                .... NR
 SOSCF                  CNVSOSCF        .... on
   Start iteration      SOSCFMaxIt      ....   150
   Startup grad/error   SOSCFStart      ....  0.003300
 Level Shifting         CNVShift        .... on
   Level shift para.    LevelShift      ....    0.2500
   Turn off err/grad.   ShiftErr        ....    0.0010
 Zerner damping         CNVZerner       .... off
 Static damping         CNVDamp         .... on
   Fraction old density DampFac         ....    0.7000
   Max. Damping (<1)    DampMax         ....    0.9800
   Min. Damping (>=0)   DampMin         ....    0.0000
   Turn off err/grad.   DampErr         ....    0.1000
 Fernandez-Rico         CNVRico         .... off

SCF Procedure:
 Maximum # iterations   MaxIter         ....   125
 SCF integral mode      SCFMode         .... Direct
   Integral package                     .... SHARK and LIBINT hybrid scheme
 Reset frequency        DirectResetFreq ....    20
 Integral Threshold     Thresh          ....  2.500e-11 Eh
 Primitive CutOff       TCut            ....  2.500e-12 Eh

Convergence Tolerance:
 Convergence Check Mode ConvCheckMode   .... Total+1el-Energy
 Convergence forced     ConvForced      .... 0
 Energy Change          TolE            ....  1.000e-08 Eh
 1-El. energy change                    ....  1.000e-05 Eh
 Orbital Gradient       TolG            ....  1.000e-05
 Orbital Rotation angle TolX            ....  1.000e-05
 DIIS Error             TolErr          ....  5.000e-07


Diagonalization of the overlap matrix:
Smallest eigenvalue                        ... 1.156e-02
Time for diagonalization                   ...    0.001 sec
Threshold for overlap eigenvalues          ... 1.000e-08
Number of eigenvalues below threshold      ... 0
Time for construction of square roots      ...    0.003 sec
Total time needed                          ...    0.004 sec

SHARK General Contraction Test:  Segmented basis detected
   -> Pre-screening matrix found on disk - Trying to read with NShells=24
   -> Passing Pre-screening matrix on to SHARK ...ok
   -> Leaving CheckPreScreeningMatrix
----------------------
SHARK INTEGRAL PACKAGE
----------------------

Number of atoms                             ...      3
Number of basis functions                   ...     54
Number of shells                            ...     24
Maximum angular momentum                    ...      2
Integral batch strategy                     ... SHARK/LIBINT Hybrid
RI-J (if used) integral strategy            ... SPLIT-RIJ (Revised 2003 algorithm where possible)
Printlevel                                  ...      2
Contraction scheme used                     ... SEGMENTED contraction
Coulomb Range Separation                    ... NOT USED
Exchange Range Separation                   ... NOT USED
Finite Nucleus Model                        ... NOT USED
Auxiliary Coulomb fitting basis             ... AVAILABLE
   # of basis functions in Aux-J            ...    158
   # of shells in Aux-J                     ...     52
   Maximum angular momentum in Aux-J        ...      4
Auxiliary J/K fitting basis                 ... NOT available
Auxiliary Correlation fitting basis         ... NOT available
Auxiliary 'external' fitting basis          ... NOT available
Integral threshold                          ...     2.500000e-11
Primitive cut-off                           ...     2.500000e-12
Primitive pair pre-selection threshold      ...     2.500000e-12

Time for model grid setup =    0.100 sec

------------------------------
INITIAL GUESS: MODEL POTENTIAL
------------------------------
Loading Hartree-Fock densities                     ... done
Calculating cut-offs                               ... done
Initializing the effective Hamiltonian             ... done
Setting up the integral package (SHARK)            ... done
Starting the Coulomb interaction                   ...     -> Generating integrals - 
    -> L=0 0 :     0.002 sec done=      3078 skipped=        24 prim-skipped=         0
    -> L=1 0 :     0.002 sec done=      4458 skipped=        24 prim-skipped=         0
    -> L=1 1 :     0.002 sec done=      1924 skipped=         3 prim-skipped=         0
    -> L=2 0 :     0.001 sec done=      1472 skipped=         0 prim-skipped=         0
    -> L=2 1 :     0.001 sec done=      1150 skipped=         0 prim-skipped=         0
    -> L=2 2 :     0.000 sec done=       276 skipped=         0 prim-skipped=         0
done (   0.0 sec)
Reading the grid                                   ... done
Mapping shells                                     ... done
Starting the XC term evaluation                    ... done (   0.1 sec)
  promolecular density results
     # of electrons  =     46.001274351
     EX              =    -71.089577811
     EC              =     -1.882536790
     EX+EC           =    -72.972114601
Transforming the Hamiltonian                       ... done (   0.0 sec)
Diagonalizing the Hamiltonian                      ... done (   0.0 sec)
Back transforming the eigenvectors                 ... done (   0.0 sec)
Now organizing SCF variables                       ... done
                      ------------------
                      INITIAL GUESS DONE (   0.2 sec)
                      ------------------
-------------------
DFT GRID GENERATION
-------------------

General Integration Accuracy     IntAcc      ... 4.388
Radial Grid Type                 RadialGrid  ... OptM3 with GC (2021)
Angular Grid (max. ang.)         AngularGrid ... 4 (Lebedev-302)
Angular grid pruning method      GridPruning ... 4 (adaptive)
Weight generation scheme         WeightScheme... Becke
Basis function cutoff            BFCut       ... 1.0000e-11
Integration weight cutoff        WCut        ... 1.0000e-14
Angular grids for H and He will be reduced by one unit
Partially contracted basis set               ... off
Rotationally invariant grid construction     ... off

Total number of grid points                  ...    22068
Total number of batches                      ...      347
Average number of points per batch           ...       63
Average number of grid points per atom       ...     7356
Time for grid setup =    0.598 sec

--------------------
COSX GRID GENERATION
--------------------

GRIDX 1
-------
General Integration Accuracy     IntAcc      ... 3.816
Radial Grid Type                 RadialGrid  ... OptM3 with GC (2021)
Angular Grid (max. ang.)         AngularGrid ... 1 (Lebedev-50)
Angular grid pruning method      GridPruning ... 4 (adaptive)
Weight generation scheme         WeightScheme... Becke
Basis function cutoff            BFCut       ... 1.0000e-11
Integration weight cutoff        WCut        ... 1.0000e-14
Angular grids for H and He will be reduced by one unit
Partially contracted basis set               ... on
Rotationally invariant grid construction     ... off

Total number of grid points                  ...     2518
Total number of batches                      ...       42
Average number of points per batch           ...       59
Average number of grid points per atom       ...      839
UseSFitting                                  ... on

GRIDX 2
-------
General Integration Accuracy     IntAcc      ... 4.020
Radial Grid Type                 RadialGrid  ... OptM3 with GC (2021)
Angular Grid (max. ang.)         AngularGrid ... 2 (Lebedev-110)
Angular grid pruning method      GridPruning ... 4 (adaptive)
Weight generation scheme         WeightScheme... Becke
Basis function cutoff            BFCut       ... 1.0000e-11
Integration weight cutoff        WCut        ... 1.0000e-14
Angular grids for H and He will be reduced by one unit
Partially contracted basis set               ... on
Rotationally invariant grid construction     ... off

Total number of grid points                  ...     5908
Total number of batches                      ...       93
Average number of points per batch           ...       63
Average number of grid points per atom       ...     1969
UseSFitting                                  ... on

GRIDX 3
-------
General Integration Accuracy     IntAcc      ... 4.338
Radial Grid Type                 RadialGrid  ... OptM3 with GC (2021)
Angular Grid (max. ang.)         AngularGrid ... 3 (Lebedev-194)
Angular grid pruning method      GridPruning ... 4 (adaptive)
Weight generation scheme         WeightScheme... Becke
Basis function cutoff            BFCut       ... 1.0000e-11
Integration weight cutoff        WCut        ... 1.0000e-14
Angular grids for H and He will be reduced by one unit
Partially contracted basis set               ... on
Rotationally invariant grid construction     ... off

Total number of grid points                  ...    15058
Total number of batches                      ...      236
Average number of points per batch           ...       63
Average number of grid points per atom       ...     5019
UseSFitting                                  ... on

Time for X-Grid setup             =    0.527 sec


--------------------
CPCM SOLVATION MODEL
--------------------
CPCM parameters:
  Epsilon                                         ...      69.0000
  Refrac                                          ...       1.3400
  Rsolv                                           ...       1.3000
  Surface type                                    ... GAUSSIAN VDW
  Epsilon function type                           ...         CPCM
Radii:
 Radius for Mg used is    3.9231 Bohr (=   2.0760 Ang.)
 Radius for Cl used is    3.9684 Bohr (=   2.1000 Ang.)
Calculating surface                               ...        done! (  0.0s)
GEPOL surface points                              ...          270
GEPOL Volume                                      ...     620.6702
GEPOL Surface-area                                ...     398.2526
Calculating surface distance matrix               ...        done! (  0.0s)
Performing Cholesky decomposition & store         ...        done! (  0.0s)
Overall time for CPCM initialization              ...                 0.0s
--------------
SCF ITERATIONS
--------------
               ***  Starting incremental Fock matrix formation  ***
==>> SHARK/AuxDens: NDens=1 Thresh =     2.500000e-11 TCut=    2.500000e-12 Lmax=2 LmaxAux=4
    -> Making Hermite density - ok     0.001 sec
    -> Making Aux-basis density - (lmax=2)
    -> L=0 0:    0.002 sec done=      3432 ( 97.1%) skipped=       104 
    -> L=1 0:    0.003 sec done=      4992 ( 98.0%) skipped=       104 
    -> L=1 1:    0.002 sec done=      2167 ( 99.2%) skipped=        17 
    -> L=2 0:    0.001 sec done=      1664 (100.0%) skipped=         0 
    -> L=2 1:    0.001 sec done=      1300 (100.0%) skipped=         0 
    -> L=2 2:    0.000 sec done=       312 (100.0%) skipped=         0 
    -> Aux basis density formed in    0.0 sec
    -> Solving linear equations - ok (   0.0 sec)
        Auxbasis Hermite Density:
        P|s>                     ...  0.000
        P|p>                     ...  0.000
        P|d>                     ...  0.000
        P|f>                     ...  0.000
        P|g>                     ...  0.000
        Building the Coulomb matrix: 
        J|ss>                          ... done (  0.0 sec) ndone=    25287 nskipped1=      339 nskipped2=      338
        J|ps>                          ... done (  0.0 sec) ndone=    31934 nskipped1=      482 nskipped2=      618
        J|pp>                          ... done (  0.0 sec) ndone=    15254 nskipped1=       40 nskipped2=      227
        J|ds>                          ... done (  0.0 sec) ndone=     5980 nskipped1=       10 nskipped2=        0
        J|dp>                          ... done (  0.1 sec) ndone=     4257 nskipped1=       16 nskipped2=       12
        J|dd>                          ... done (  0.0 sec) ndone=      476 nskipped1=        5 nskipped2=        3
        Coulomb matrix built in   0.1 sec

        Total time for Split-RI-J                ...    0.089 sec
          (0) Prelude                            ...    0.000 sec
          (1) Hermite density                    ...    0.000 sec
          (2) Aux basis density                  ...    0.000 sec (inner=  0.0)
          (3) Linear equation solution           ...    0.000 sec
          (4) J-Matrix construction              ...    0.077 sec (inner=  0.1)
        ---------------------------------------------------------

                         ----------------------------
                         !        ITERATION     0   !
                         ----------------------------
   Total Energy        :   -1119.684490052709 Eh
   Energy Change       :   -1119.684490052709 Eh
   MAX-DP              :       0.435501493122
   RMS-DP              :       0.020255650256
   Actual Damping      :       0.7000
   Actual Level Shift  :       0.2500 Eh
   Int. Num. El.       :    54.00049805 (UP=   27.00024903 DN=   27.00024903)
   Exchange            :   -58.24145972
   Correlation         :    -2.45141956

==>> SHARK/AuxDens: NDens=1 Thresh =     2.500000e-11 TCut=    2.500000e-12 Lmax=2 LmaxAux=4
    -> Making Hermite density - ok     0.001 sec
    -> Making Aux-basis density - (lmax=2)
    -> L=0 0:    0.002 sec done=      3432 ( 97.1%) skipped=       104 
    -> L=1 0:    0.003 sec done=      4991 ( 97.9%) skipped=       105 
    -> L=1 1:    0.002 sec done=      2132 ( 97.6%) skipped=        52 
    -> L=2 0:    0.001 sec done=      1664 (100.0%) skipped=         0 
    -> L=2 1:    0.001 sec done=      1276 ( 98.2%) skipped=        24 
    -> L=2 2:    0.000 sec done=       312 (100.0%) skipped=         0 
    -> Aux basis density formed in    0.0 sec
    -> Solving linear equations - ok (   0.0 sec)
        Auxbasis Hermite Density:
        P|s>                     ...  0.000
        P|p>                     ...  0.000
        P|d>                     ...  0.000
        P|f>                     ...  0.000
        P|g>                     ...  0.000
        Building the Coulomb matrix: 
        J|ss>                          ... done (  0.0 sec) ndone=    25107 nskipped1=      527 nskipped2=      170
        J|ps>                          ... done (  0.0 sec) ndone=    31560 nskipped1=      876 nskipped2=      326
        J|pp>                          ... done (  0.0 sec) ndone=    15174 nskipped1=      105 nskipped2=      206
        J|ds>                          ... done (  0.0 sec) ndone=     5950 nskipped1=       25 nskipped2=        0
        J|dp>                          ... done (  0.0 sec) ndone=     4231 nskipped1=       26 nskipped2=        8
        J|dd>                          ... done (  0.0 sec) ndone=      472 nskipped1=        7 nskipped2=        3
        Coulomb matrix built in   0.0 sec

        Total time for Split-RI-J                ...    0.019 sec
          (0) Prelude                            ...    0.000 sec
          (1) Hermite density                    ...    0.000 sec
          (2) Aux basis density                  ...    0.000 sec (inner=  0.0)
          (3) Linear equation solution           ...    0.000 sec
          (4) J-Matrix construction              ...    0.007 sec (inner=  0.0)
        ---------------------------------------------------------

                         ----------------------------
                         !        ITERATION     1   !
                         ----------------------------
   Total Energy        :   -1119.816967883969 Eh
   Energy Change       :      -0.132477831260 Eh
   MAX-DP              :       0.501438208485
   RMS-DP              :       0.017891746495
   Actual Damping      :       0.7000
   Actual Level Shift  :       0.2500 Eh
   Int. Num. El.       :    54.00063952 (UP=   27.00031976 DN=   27.00031976)
   Exchange            :   -57.98687402
   Correlation         :    -2.43903633

==>> SHARK/AuxDens: NDens=1 Thresh =     2.500000e-11 TCut=    2.500000e-12 Lmax=2 LmaxAux=4
    -> Making Hermite density - ok     0.001 sec
    -> Making Aux-basis density - (lmax=2)
    -> L=0 0:    0.003 sec done=      3432 ( 97.1%) skipped=       104 
    -> L=1 0:    0.005 sec done=      4992 ( 98.0%) skipped=       104 
    -> L=1 1:    0.083 sec done=      2132 ( 97.6%) skipped=        52 
    -> L=2 0:    0.001 sec done=      1664 (100.0%) skipped=         0 
    -> L=2 1:    0.002 sec done=      1244 ( 95.7%) skipped=        56 
    -> L=2 2:    0.000 sec done=       311 ( 99.7%) skipped=         1 
    -> Aux basis density formed in    0.1 sec
    -> Solving linear equations - ok (   0.0 sec)
        Auxbasis Hermite Density:
        P|s>                     ...  0.000
        P|p>                     ...  0.000
        P|d>                     ...  0.000
        P|f>                     ...  0.000
        P|g>                     ...  0.000
        Building the Coulomb matrix: 
        J|ss>                          ... done (  0.0 sec) ndone=    25099 nskipped1=      531 nskipped2=      170
        J|ps>                          ... done (  0.0 sec) ndone=    31564 nskipped1=      870 nskipped2=      326
        J|pp>                          ... done (  0.0 sec) ndone=    15173 nskipped1=      106 nskipped2=      206
        J|ds>                          ... done (  0.0 sec) ndone=     5938 nskipped1=       31 nskipped2=        0
        J|dp>                          ... done (  0.0 sec) ndone=     4227 nskipped1=       30 nskipped2=        8
        J|dd>                          ... done (  0.0 sec) ndone=      472 nskipped1=        7 nskipped2=        3
        Coulomb matrix built in   0.0 sec

        Total time for Split-RI-J                ...    0.109 sec
          (0) Prelude                            ...    0.000 sec
          (1) Hermite density                    ...    0.000 sec
          (2) Aux basis density                  ...    0.000 sec (inner=  0.0)
          (3) Linear equation solution           ...    0.000 sec
          (4) J-Matrix construction              ...    0.012 sec (inner=  0.0)
        ---------------------------------------------------------
                               ***Turning on DIIS***

                         ----------------------------
                         !        ITERATION     2   !
                         ----------------------------
   Total Energy        :   -1119.888407014727 Eh
   Energy Change       :      -0.071439130758 Eh
   MAX-DP              :       1.336395709003
   RMS-DP              :       0.040717158095
   Actual Damping      :       0.0000
   Actual Level Shift  :       0.2500 Eh
   Int. Num. El.       :    54.00079397 (UP=   27.00039698 DN=   27.00039698)
   Exchange            :   -57.80506888
   Correlation         :    -2.42906046
   DIIS-Error          :       0.063261980720

==>> SHARK/AuxDens: NDens=1 Thresh =     2.500000e-11 TCut=    2.500000e-12 Lmax=2 LmaxAux=4
    -> Making Hermite density - ok     0.001 sec
    -> Making Aux-basis density - (lmax=2)
    -> L=0 0:    0.002 sec done=      3432 ( 97.1%) skipped=       104 
    -> L=1 0:    0.003 sec done=      4992 ( 98.0%) skipped=       104 
    -> L=1 1:    0.002 sec done=      2141 ( 98.0%) skipped=        43 
    -> L=2 0:    0.001 sec done=      1664 (100.0%) skipped=         0 
    -> L=2 1:    0.001 sec done=      1288 ( 99.1%) skipped=        12 
    -> L=2 2:    0.000 sec done=       312 (100.0%) skipped=         0 
    -> Aux basis density formed in    0.0 sec
    -> Solving linear equations - ok (   0.0 sec)
        Auxbasis Hermite Density:
        P|s>                     ...  0.000
        P|p>                     ...  0.000
        P|d>                     ...  0.000
        P|f>                     ...  0.000
        P|g>                     ...  0.000
        Building the Coulomb matrix: 
        J|ss>                          ... done (  0.0 sec) ndone=    25213 nskipped1=      441 nskipped2=      180
        J|ps>                          ... done (  0.0 sec) ndone=    31770 nskipped1=      676 nskipped2=      350
        J|pp>                          ... done (  0.1 sec) ndone=    15228 nskipped1=       65 nskipped2=      210
        J|ds>                          ... done (  0.0 sec) ndone=     5980 nskipped1=       10 nskipped2=        0
        J|dp>                          ... done (  0.0 sec) ndone=     4251 nskipped1=       18 nskipped2=       12
        J|dd>                          ... done (  0.0 sec) ndone=      476 nskipped1=        5 nskipped2=        3
        Coulomb matrix built in   0.1 sec

        Total time for Split-RI-J                ...    0.089 sec
          (0) Prelude                            ...    0.000 sec
          (1) Hermite density                    ...    0.000 sec
          (2) Aux basis density                  ...    0.000 sec (inner=  0.0)
          (3) Linear equation solution           ...    0.000 sec
          (4) J-Matrix construction              ...    0.078 sec (inner=  0.1)
        ---------------------------------------------------------

                         ----------------------------
                         !        ITERATION     3   !
                         ----------------------------
   Total Energy        :   -1119.987461082482 Eh
   Energy Change       :      -0.099054067754 Eh
   MAX-DP              :       0.144381676808
   RMS-DP              :       0.008596224880
   Actual Damping      :       0.0000
   Actual Level Shift  :       0.2500 Eh
   Int. Num. El.       :    54.00119303 (UP=   27.00059652 DN=   27.00059652)
   Exchange            :   -57.49581570
   Correlation         :    -2.40856414
   DIIS-Error          :       0.049440835684
   DIIS coefficients:
      0.49275   0.50725

==>> SHARK/AuxDens: NDens=1 Thresh =     2.500000e-11 TCut=    2.500000e-12 Lmax=2 LmaxAux=4
    -> Making Hermite density - ok     0.001 sec
    -> Making Aux-basis density - (lmax=2)
    -> L=0 0:    0.002 sec done=      3432 ( 97.1%) skipped=       104 
    -> L=1 0:    0.003 sec done=      4992 ( 98.0%) skipped=       104 
    -> L=1 1:    0.002 sec done=      2132 ( 97.6%) skipped=        52 
    -> L=2 0:    0.001 sec done=      1664 (100.0%) skipped=         0 
    -> L=2 1:    0.001 sec done=      1206 ( 92.8%) skipped=        94 
    -> L=2 2:    0.000 sec done=       261 ( 83.7%) skipped=        51 
    -> Aux basis density formed in    0.0 sec
    -> Solving linear equations - ok (   0.0 sec)
        Auxbasis Hermite Density:
        P|s>                     ...  0.120
        P|p>                     ...  0.120
        P|d>                     ...  0.120
        P|f>                     ...  0.120
        P|g>                     ...  0.120
        Building the Coulomb matrix: 
        J|ss>                          ... done (  0.0 sec) ndone=    25167 nskipped1=      497 nskipped2=      170
        J|ps>                          ... done (  0.0 sec) ndone=    31620 nskipped1=      836 nskipped2=      326
        J|pp>                          ... done (  0.0 sec) ndone=    15205 nskipped1=       88 nskipped2=      210
        J|ds>                          ... done (  0.1 sec) ndone=     5980 nskipped1=       10 nskipped2=        0
        J|dp>                          ... done (  0.0 sec) ndone=     4217 nskipped1=       38 nskipped2=        8
        J|dd>                          ... done (  0.0 sec) ndone=      476 nskipped1=        5 nskipped2=        3
        Coulomb matrix built in   0.1 sec

        Total time for Split-RI-J                ...    0.099 sec
          (0) Prelude                            ...    0.000 sec
          (1) Hermite density                    ...    0.000 sec
          (2) Aux basis density                  ...    0.000 sec (inner=  0.0)
          (3) Linear equation solution           ...    0.000 sec
          (4) J-Matrix construction              ...    0.088 sec (inner=  0.1)
        ---------------------------------------------------------

                         ----------------------------
                         !        ITERATION     4   !
                         ----------------------------
   Total Energy        :   -1120.005519370320 Eh
   Energy Change       :      -0.018058287838 Eh
   MAX-DP              :       0.093863898368
   RMS-DP              :       0.003654031733
   Actual Damping      :       0.0000
   Actual Level Shift  :       0.2500 Eh
   Int. Num. El.       :    54.00115348 (UP=   27.00057674 DN=   27.00057674)
   Exchange            :   -57.61521323
   Correlation         :    -2.41369737
   DIIS-Error          :       0.015542533905
   DIIS coefficients:
      0.13709  -0.10510   0.96801

==>> SHARK/AuxDens: NDens=1 Thresh =     2.500000e-11 TCut=    2.500000e-12 Lmax=2 LmaxAux=4
    -> Making Hermite density - ok     0.001 sec
    -> Making Aux-basis density - (lmax=2)
    -> L=0 0:    0.002 sec done=      3420 ( 96.7%) skipped=       116 
    -> L=1 0:    0.003 sec done=      4992 ( 98.0%) skipped=       104 
    -> L=1 1:    0.002 sec done=      2132 ( 97.6%) skipped=        52 
    -> L=2 0:    0.001 sec done=      1652 ( 99.3%) skipped=        12 
    -> L=2 1:    0.001 sec done=      1196 ( 92.0%) skipped=       104 
    -> L=2 2:    0.000 sec done=       266 ( 85.3%) skipped=        46 
    -> Aux basis density formed in    0.0 sec
    -> Solving linear equations - ok (   0.0 sec)
        Auxbasis Hermite Density:
        P|s>                     ... -0.000
        P|p>                     ... -0.000
        P|d>                     ... -0.000
        P|f>                     ... -0.000
        P|g>                     ... -0.000
        Building the Coulomb matrix: 
        J|ss>                          ... done (  0.0 sec) ndone=    25167 nskipped1=      497 nskipped2=      170
        J|ps>                          ... done (  0.0 sec) ndone=    31564 nskipped1=      856 nskipped2=      326
        J|pp>                          ... done (  0.0 sec) ndone=    15196 nskipped1=       97 nskipped2=      210
        J|ds>                          ... done (  0.0 sec) ndone=     5980 nskipped1=       10 nskipped2=        0
        J|dp>                          ... done (  0.0 sec) ndone=     4179 nskipped1=       56 nskipped2=        0
        J|dd>                          ... done (  0.0 sec) ndone=      476 nskipped1=        5 nskipped2=        3
        Coulomb matrix built in   0.0 sec

        Total time for Split-RI-J                ...    0.019 sec
          (0) Prelude                            ...    0.000 sec
          (1) Hermite density                    ...    0.000 sec
          (2) Aux basis density                  ...    0.000 sec (inner=  0.0)
          (3) Linear equation solution           ...    0.000 sec
          (4) J-Matrix construction              ...    0.007 sec (inner=  0.0)
        ---------------------------------------------------------

                         ----------------------------
                         !        ITERATION     5   !
                         ----------------------------
   Total Energy        :   -1120.007548587385 Eh
   Energy Change       :      -0.002029217065 Eh
   MAX-DP              :       0.048271806304
   RMS-DP              :       0.001484992408
   Actual Damping      :       0.0000
   Actual Level Shift  :       0.2500 Eh
   Int. Num. El.       :    54.00112161 (UP=   27.00056081 DN=   27.00056081)
   Exchange            :   -57.64053210
   Correlation         :    -2.41546927
   DIIS-Error          :       0.005474011788
   DIIS coefficients:
      0.04541  -0.01117  -0.07031   1.03606

==>> SHARK/AuxDens: NDens=1 Thresh =     2.500000e-11 TCut=    2.500000e-12 Lmax=2 LmaxAux=4
    -> Making Hermite density - ok     0.001 sec
    -> Making Aux-basis density - (lmax=2)
    -> L=0 0:    0.001 sec done=      3396 ( 96.0%) skipped=       140 
    -> L=1 0:    0.003 sec done=      4976 ( 97.6%) skipped=       120 
    -> L=1 1:    0.002 sec done=      2132 ( 97.6%) skipped=        52 
    -> L=2 0:    0.001 sec done=      1652 ( 99.3%) skipped=        12 
    -> L=2 1:    0.001 sec done=      1196 ( 92.0%) skipped=       104 
    -> L=2 2:    0.000 sec done=       265 ( 84.9%) skipped=        47 
    -> Aux basis density formed in    0.0 sec
    -> Solving linear equations - ok (   0.0 sec)
        Auxbasis Hermite Density:
        P|s>                     ... -0.000
        P|p>                     ... -0.000
        P|d>                     ... -0.000
        P|f>                     ... -0.000
        P|g>                     ... -0.000
        Building the Coulomb matrix: 
        J|ss>                          ... done (  0.0 sec) ndone=    24978 nskipped1=      610 nskipped2=      156
        J|ps>                          ... done (  0.0 sec) ndone=    31492 nskipped1=      912 nskipped2=      326
        J|pp>                          ... done (  0.0 sec) ndone=    15184 nskipped1=      109 nskipped2=      210
        J|ds>                          ... done (  0.0 sec) ndone=     5972 nskipped1=       18 nskipped2=        0
        J|dp>                          ... done (  0.0 sec) ndone=     4163 nskipped1=       72 nskipped2=        0
        J|dd>                          ... done (  0.0 sec) ndone=      459 nskipped1=       14 nskipped2=        2
        Coulomb matrix built in   0.0 sec

        Total time for Split-RI-J                ...    0.018 sec
          (0) Prelude                            ...    0.000 sec
          (1) Hermite density                    ...    0.000 sec
          (2) Aux basis density                  ...    0.000 sec (inner=  0.0)
          (3) Linear equation solution           ...    0.000 sec
          (4) J-Matrix construction              ...    0.007 sec (inner=  0.0)
        ---------------------------------------------------------
                      *** Initiating the SOSCF procedure ***
                           *** Shutting down DIIS ***
                      *** Re-Reading the Fockian *** 
                      *** Removing any level shift *** 

                         ----------------------------
                         !        ITERATION     6   !
                         ----------------------------
   Total Energy        :   -1120.007792792213 Eh
   Energy Change       :      -0.000244204828 Eh
   MAX-DP              :       0.025082104905
   RMS-DP              :       0.000640165031
   Orbital gradient    :       0.001237927028
   Orbital Rotation    :       0.001237927028
   Actual Damping      :       0.0000
   Int. Num. El.       :    54.00110657 (UP=   27.00055329 DN=   27.00055329)
   Exchange            :   -57.65094816
   Correlation         :    -2.41615159

               *** Restarting incremental Fock matrix formation ***
==>> SHARK/AuxDens: NDens=1 Thresh =     2.500000e-11 TCut=    2.500000e-12 Lmax=2 LmaxAux=4
    -> Making Hermite density - ok     0.001 sec
    -> Making Aux-basis density - (lmax=2)
    -> L=0 0:    0.002 sec done=      3432 ( 97.1%) skipped=       104 
    -> L=1 0:    0.002 sec done=      4990 ( 97.9%) skipped=       106 
    -> L=1 1:    0.002 sec done=      2156 ( 98.7%) skipped=        28 
    -> L=2 0:    0.001 sec done=      1664 (100.0%) skipped=         0 
    -> L=2 1:    0.001 sec done=      1288 ( 99.1%) skipped=        12 
    -> L=2 2:    0.000 sec done=       312 (100.0%) skipped=         0 
    -> Aux basis density formed in    0.0 sec
    -> Solving linear equations - ok (   0.0 sec)
        Auxbasis Hermite Density:
        P|s>                     ...  0.000
        P|p>                     ...  0.000
        P|d>                     ...  0.000
        P|f>                     ...  0.000
        P|g>                     ...  0.000
        Building the Coulomb matrix: 
        J|ss>                          ... done (  0.0 sec) ndone=    25245 nskipped1=      353 nskipped2=      344
        J|ps>                          ... done (  0.1 sec) ndone=    31806 nskipped1=      546 nskipped2=      624
        J|pp>                          ... done (  0.0 sec) ndone=    15230 nskipped1=       64 nskipped2=      227
        J|ds>                          ... done (  0.0 sec) ndone=     5980 nskipped1=       10 nskipped2=        0
        J|dp>                          ... done (  0.0 sec) ndone=     4267 nskipped1=       10 nskipped2=       12
        J|dd>                          ... done (  0.0 sec) ndone=      476 nskipped1=        5 nskipped2=        3
        Coulomb matrix built in   0.1 sec

        Total time for Split-RI-J                ...    0.086 sec
          (0) Prelude                            ...    0.000 sec
          (1) Hermite density                    ...    0.000 sec
          (2) Aux basis density                  ...    0.000 sec (inner=  0.0)
          (3) Linear equation solution           ...    0.000 sec
          (4) J-Matrix construction              ...    0.077 sec (inner=  0.1)
        ---------------------------------------------------------

                         ----------------------------
                         !        ITERATION     7   !
                         ----------------------------
   Total Energy        :   -1120.007325322169 Eh
   Energy Change       :       0.000467470044 Eh
   MAX-DP              :       0.040050362791
   RMS-DP              :       0.000955074100
   Orbital gradient    :       0.000883179640
   Orbital Rotation    :       0.004251847220
   Actual Damping      :       0.0000
   Int. Num. El.       :    54.00109917 (UP=   27.00054958 DN=   27.00054958)
   Exchange            :   -57.65275910
   Correlation         :    -2.41634731

==>> SHARK/AuxDens: NDens=1 Thresh =     2.500000e-11 TCut=    2.500000e-12 Lmax=2 LmaxAux=4
    -> Making Hermite density - ok     0.001 sec
    -> Making Aux-basis density - (lmax=2)
    -> L=0 0:    0.003 sec done=      3358 ( 95.0%) skipped=       178 
    -> L=1 0:    0.005 sec done=      4888 ( 95.9%) skipped=       208 
    -> L=1 1:    0.003 sec done=      2132 ( 97.6%) skipped=        52 
    -> L=2 0:    0.072 sec done=      1608 ( 96.6%) skipped=        56 
    -> L=2 1:    0.002 sec done=      1196 ( 92.0%) skipped=       104 
    -> L=2 2:    0.000 sec done=       260 ( 83.3%) skipped=        52 
    -> Aux basis density formed in    0.1 sec
    -> Solving linear equations - ok (   0.0 sec)
        Auxbasis Hermite Density:
        P|s>                     ...  0.120
        P|p>                     ...  0.120
        P|d>                     ...  0.120
        P|f>                     ...  0.120
        P|g>                     ...  0.120
        Building the Coulomb matrix: 
        J|ss>                          ... done (  0.0 sec) ndone=    24727 nskipped1=      697 nskipped2=      130
        J|ps>                          ... done (  0.0 sec) ndone=    31532 nskipped1=      872 nskipped2=      328
        J|pp>                          ... done (  0.0 sec) ndone=    15203 nskipped1=       90 nskipped2=      210
        J|ds>                          ... done (  0.0 sec) ndone=     5928 nskipped1=       30 nskipped2=        0
        J|dp>                          ... done (  0.0 sec) ndone=     4149 nskipped1=       86 nskipped2=        0
        J|dd>                          ... done (  0.0 sec) ndone=      431 nskipped1=       26 nskipped2=        0
        Coulomb matrix built in   0.0 sec

        Total time for Split-RI-J                ...    0.102 sec
          (0) Prelude                            ...    0.000 sec
          (1) Hermite density                    ...    0.000 sec
          (2) Aux basis density                  ...    0.000 sec (inner=  0.0)
          (3) Linear equation solution           ...    0.000 sec
          (4) J-Matrix construction              ...    0.014 sec (inner=  0.0)
        ---------------------------------------------------------

                         ----------------------------
                         !        ITERATION     8   !
                         ----------------------------
   Total Energy        :   -1120.007334233981 Eh
   Energy Change       :      -0.000008911812 Eh
   MAX-DP              :       0.002330339934
   RMS-DP              :       0.000148190696
   Orbital gradient    :       0.000282604819
   Orbital Rotation    :       0.000386853628
   Actual Damping      :       0.0000
   Int. Num. El.       :    54.00108853 (UP=   27.00054426 DN=   27.00054426)
   Exchange            :   -57.65620143
   Correlation         :    -2.41659137

==>> SHARK/AuxDens: NDens=1 Thresh =     2.500000e-11 TCut=    2.500000e-12 Lmax=2 LmaxAux=4
    -> Making Hermite density - ok     0.001 sec
    -> Making Aux-basis density - (lmax=2)
    -> L=0 0:    0.002 sec done=      3320 ( 93.9%) skipped=       216 
    -> L=1 0:    0.003 sec done=      4818 ( 94.5%) skipped=       278 
    -> L=1 1:    0.083 sec done=      2132 ( 97.6%) skipped=        52 
    -> L=2 0:    0.001 sec done=      1562 ( 93.9%) skipped=       102 
    -> L=2 1:    0.001 sec done=      1196 ( 92.0%) skipped=       104 
    -> L=2 2:    0.000 sec done=       260 ( 83.3%) skipped=        52 
    -> Aux basis density formed in    0.1 sec
    -> Solving linear equations - ok (   0.0 sec)
        Auxbasis Hermite Density:
        P|s>                     ...  0.120
        P|p>                     ...  0.120
        P|d>                     ...  0.120
        P|f>                     ...  0.120
        P|g>                     ...  0.120
        Building the Coulomb matrix: 
        J|ss>                          ... done (  0.0 sec) ndone=    24515 nskipped1=      832 nskipped2=      124
        J|ps>                          ... done (  0.0 sec) ndone=    31278 nskipped1=      996 nskipped2=      308
        J|pp>                          ... done (  0.0 sec) ndone=    15191 nskipped1=      102 nskipped2=      210
        J|ds>                          ... done (  0.0 sec) ndone=     5900 nskipped1=       48 nskipped2=        0
        J|dp>                          ... done (  0.0 sec) ndone=     4141 nskipped1=       94 nskipped2=        0
        J|dd>                          ... done (  0.0 sec) ndone=      426 nskipped1=       31 nskipped2=        0
        Coulomb matrix built in   0.0 sec

        Total time for Split-RI-J                ...    0.099 sec
          (0) Prelude                            ...    0.000 sec
          (1) Hermite density                    ...    0.000 sec
          (2) Aux basis density                  ...    0.000 sec (inner=  0.0)
          (3) Linear equation solution           ...    0.000 sec
          (4) J-Matrix construction              ...    0.007 sec (inner=  0.0)
        ---------------------------------------------------------

                         ----------------------------
                         !        ITERATION     9   !
                         ----------------------------
   Total Energy        :   -1120.007336012933 Eh
   Energy Change       :      -0.000001778952 Eh
   MAX-DP              :       0.000832915461
   RMS-DP              :       0.000028099615
   Orbital gradient    :       0.000100924187
   Orbital Rotation    :       0.000122531572
   Actual Damping      :       0.0000
   Int. Num. El.       :    54.00108895 (UP=   27.00054448 DN=   27.00054448)
   Exchange            :   -57.65451042
   Correlation         :    -2.41650945

==>> SHARK/AuxDens: NDens=1 Thresh =     2.500000e-11 TCut=    2.500000e-12 Lmax=2 LmaxAux=4
    -> Making Hermite density - ok     0.002 sec
    -> Making Aux-basis density - (lmax=2)
    -> L=0 0:    0.002 sec done=      3194 ( 90.3%) skipped=       342 
    -> L=1 0:    0.003 sec done=      4622 ( 90.7%) skipped=       474 
    -> L=1 1:    0.004 sec done=      2120 ( 97.1%) skipped=        64 
    -> L=2 0:    0.081 sec done=      1558 ( 93.6%) skipped=       106 
    -> L=2 1:    0.001 sec done=      1196 ( 92.0%) skipped=       104 
    -> L=2 2:    0.000 sec done=       260 ( 83.3%) skipped=        52 
    -> Aux basis density formed in    0.1 sec
    -> Solving linear equations - ok (   0.0 sec)
        Auxbasis Hermite Density:
        P|s>                     ...  0.120
        P|p>                     ...  0.120
        P|d>                     ...  0.120
        P|f>                     ...  0.120
        P|g>                     ...  0.120
        Building the Coulomb matrix: 
        J|ss>                          ... done (  0.0 sec) ndone=    24119 nskipped1=     1076 nskipped2=      106
        J|ps>                          ... done (  0.0 sec) ndone=    30706 nskipped1=     1300 nskipped2=      292
        J|pp>                          ... done (  0.0 sec) ndone=    15005 nskipped1=      184 nskipped2=      202
        J|ds>                          ... done (  0.0 sec) ndone=     5840 nskipped1=       81 nskipped2=        0
        J|dp>                          ... done (  0.0 sec) ndone=     4133 nskipped1=      102 nskipped2=        0
        J|dd>                          ... done (  0.0 sec) ndone=      416 nskipped1=       41 nskipped2=        0
        Coulomb matrix built in   0.0 sec

        Total time for Split-RI-J                ...    0.102 sec
          (0) Prelude                            ...    0.000 sec
          (1) Hermite density                    ...    0.000 sec
          (2) Aux basis density                  ...    0.000 sec (inner=  0.0)
          (3) Linear equation solution           ...    0.000 sec
          (4) J-Matrix construction              ...    0.007 sec (inner=  0.0)
        ---------------------------------------------------------

                         ----------------------------
                         !        ITERATION    10   !
                         ----------------------------
   Total Energy        :   -1120.007336129623 Eh
   Energy Change       :      -0.000000116691 Eh
   MAX-DP              :       0.000450081201
   RMS-DP              :       0.000011769239
   Orbital gradient    :       0.000025551561
   Orbital Rotation    :       0.000051532991
   Actual Damping      :       0.0000
   Int. Num. El.       :    54.00108923 (UP=   27.00054462 DN=   27.00054462)
   Exchange            :   -57.65480674
   Correlation         :    -2.41651187

==>> SHARK/AuxDens: NDens=1 Thresh =     2.500000e-11 TCut=    2.500000e-12 Lmax=2 LmaxAux=4
    -> Making Hermite density - ok     0.001 sec
    -> Making Aux-basis density - (lmax=2)
    -> L=0 0:    0.001 sec done=      3139 ( 88.8%) skipped=       397 
    -> L=1 0:    0.003 sec done=      4382 ( 86.0%) skipped=       714 
    -> L=1 1:    0.002 sec done=      2118 ( 97.0%) skipped=        66 
    -> L=2 0:    0.001 sec done=      1484 ( 89.2%) skipped=       180 
    -> L=2 1:    0.001 sec done=      1196 ( 92.0%) skipped=       104 
    -> L=2 2:    0.000 sec done=       260 ( 83.3%) skipped=        52 
    -> Aux basis density formed in    0.0 sec
    -> Solving linear equations - ok (   0.0 sec)
        Auxbasis Hermite Density:
        P|s>                     ...  0.120
        P|p>                     ...  0.120
        P|d>                     ...  0.120
        P|f>                     ...  0.120
        P|g>                     ...  0.120
        Building the Coulomb matrix: 
        J|ss>                          ... done (  0.0 sec) ndone=    23513 nskipped1=     1442 nskipped2=       92
        J|ps>                          ... done (  0.0 sec) ndone=    29442 nskipped1=     2088 nskipped2=      228
        J|pp>                          ... done (  0.0 sec) ndone=    14759 nskipped1=      368 nskipped2=      194
        J|ds>                          ... done (  0.0 sec) ndone=     5771 nskipped1=      133 nskipped2=        0
        J|dp>                          ... done (  0.0 sec) ndone=     4131 nskipped1=      104 nskipped2=        0
        J|dd>                          ... done (  0.0 sec) ndone=      411 nskipped1=       46 nskipped2=        0
        Coulomb matrix built in   0.0 sec

        Total time for Split-RI-J                ...    0.017 sec
          (0) Prelude                            ...    0.000 sec
          (1) Hermite density                    ...    0.000 sec
          (2) Aux basis density                  ...    0.000 sec (inner=  0.0)
          (3) Linear equation solution           ...    0.000 sec
          (4) J-Matrix construction              ...    0.007 sec (inner=  0.0)
        ---------------------------------------------------------

                         ----------------------------
                         !        ITERATION    11   !
                         ----------------------------
   Total Energy        :   -1120.007336133342 Eh
   Energy Change       :      -0.000000003719 Eh
   MAX-DP              :       0.000038380403
   RMS-DP              :       0.000001672235
   Orbital gradient    :       0.000005412821
   Orbital Rotation    :       0.000006586962
   Actual Damping      :       0.0000
   Int. Num. El.       :    54.00108910 (UP=   27.00054455 DN=   27.00054455)
   Exchange            :   -57.65477930
   Correlation         :    -2.41651357

==>> SHARK/AuxDens: NDens=1 Thresh =     2.500000e-11 TCut=    2.500000e-12 Lmax=2 LmaxAux=4
    -> Making Hermite density - ok     0.001 sec
    -> Making Aux-basis density - (lmax=2)
    -> L=0 0:    0.003 sec done=      3000 ( 84.8%) skipped=       536 
    -> L=1 0:    0.003 sec done=      4287 ( 84.1%) skipped=       809 
    -> L=1 1:    0.002 sec done=      2046 ( 93.7%) skipped=       138 
    -> L=2 0:    0.001 sec done=      1514 ( 91.0%) skipped=       150 
    -> L=2 1:    0.001 sec done=      1196 ( 92.0%) skipped=       104 
    -> L=2 2:    0.000 sec done=       260 ( 83.3%) skipped=        52 
    -> Aux basis density formed in    0.0 sec
    -> Solving linear equations - ok (   0.0 sec)
        Auxbasis Hermite Density:
        P|s>                     ...  0.120
        P|p>                     ...  0.120
        P|d>                     ...  0.120
        P|f>                     ...  0.120
        P|g>                     ...  0.120
        Building the Coulomb matrix: 
        J|ss>                          ... done (  0.0 sec) ndone=    22577 nskipped1=     1978 nskipped2=       42
        J|ps>                          ... done (  0.1 sec) ndone=    27689 nskipped1=     2959 nskipped2=       70
        J|pp>                          ... done (  0.0 sec) ndone=    14089 nskipped1=      642 nskipped2=       88
        J|ds>                          ... done (  0.0 sec) ndone=     5180 nskipped1=      323 nskipped2=        0
        J|dp>                          ... done (  0.0 sec) ndone=     4089 nskipped1=      118 nskipped2=        0
        J|dd>                          ... done (  0.0 sec) ndone=      405 nskipped1=       52 nskipped2=        0
        Coulomb matrix built in   0.1 sec

        Total time for Split-RI-J                ...    0.102 sec
          (0) Prelude                            ...    0.000 sec
          (1) Hermite density                    ...    0.000 sec
          (2) Aux basis density                  ...    0.000 sec (inner=  0.0)
          (3) Linear equation solution           ...    0.000 sec
          (4) J-Matrix construction              ...    0.089 sec (inner=  0.1)
        ---------------------------------------------------------

                         ----------------------------
                         !        ITERATION    12   !
                         ----------------------------
   Total Energy        :   -1120.007336133241 Eh
   Energy Change       :       0.000000000101 Eh
   MAX-DP              :       0.000015956417
   RMS-DP              :       0.000000564452
   Orbital gradient    :       0.000002558120
   Orbital Rotation    :       0.000001978838
   Actual Damping      :       0.0000
   Int. Num. El.       :    54.00108909 (UP=   27.00054454 DN=   27.00054454)
   Exchange            :   -57.65478347
   Correlation         :    -2.41651373

==>> SHARK/AuxDens: NDens=1 Thresh =     2.500000e-11 TCut=    2.500000e-12 Lmax=2 LmaxAux=4
    -> Making Hermite density - ok     0.001 sec
    -> Making Aux-basis density - (lmax=2)
    -> L=0 0:    0.001 sec done=      2891 ( 81.8%) skipped=       645 
    -> L=1 0:    0.003 sec done=      4104 ( 80.5%) skipped=       992 
    -> L=1 1:    0.002 sec done=      1974 ( 90.4%) skipped=       210 
    -> L=2 0:    0.001 sec done=      1357 ( 81.6%) skipped=       307 
    -> L=2 1:    0.001 sec done=      1195 ( 91.9%) skipped=       105 
    -> L=2 2:    0.000 sec done=       260 ( 83.3%) skipped=        52 
    -> Aux basis density formed in    0.0 sec
    -> Solving linear equations - ok (   0.0 sec)
        Auxbasis Hermite Density:
        P|s>                     ...  0.120
        P|p>                     ...  0.120
        P|d>                     ...  0.120
        P|f>                     ...  0.120
        P|g>                     ...  0.120
        Building the Coulomb matrix: 
        J|ss>                          ... done (  0.0 sec) ndone=    22321 nskipped1=     2190 nskipped2=       24
        J|ps>                          ... done (  0.0 sec) ndone=    27131 nskipped1=     3461 nskipped2=       58
        J|pp>                          ... done (  0.0 sec) ndone=    13861 nskipped1=      822 nskipped2=       68
        J|ds>                          ... done (  0.0 sec) ndone=     5023 nskipped1=      410 nskipped2=        0
        J|dp>                          ... done (  0.0 sec) ndone=     4075 nskipped1=      124 nskipped2=        0
        J|dd>                          ... done (  0.0 sec) ndone=      405 nskipped1=       52 nskipped2=        0
        Coulomb matrix built in   0.0 sec

        Total time for Split-RI-J                ...    0.017 sec
          (0) Prelude                            ...    0.000 sec
          (1) Hermite density                    ...    0.000 sec
          (2) Aux basis density                  ...    0.000 sec (inner=  0.0)
          (3) Linear equation solution           ...    0.000 sec
          (4) J-Matrix construction              ...    0.007 sec (inner=  0.0)
        ---------------------------------------------------------
                 **** Energy Check signals convergence ****
              ***Rediagonalizing the Fockian in SOSCF/NRSCF***

               *****************************************************
               *                     SUCCESS                       *
               *           SCF CONVERGED AFTER  13 CYCLES          *
               *****************************************************

Old exchange energy                            =    -14.530392917 Eh
New exchange energy                            =    -14.530466350 Eh
Exchange energy change after final integration =     -0.000073433 Eh
Total energy after final integration           =  -1120.007409567 Eh
Final COS-X integration done in                =     4.401 sec

----------------
TOTAL SCF ENERGY
----------------

Total Energy       :        -1120.00740957 Eh          -30476.95103 eV

Components:
Nuclear Repulsion  :          138.13872286 Eh            3758.94575 eV
Electronic Energy  :        -1258.14613243 Eh          -34235.89678 eV
One Electron Energy:        -1896.48017698 Eh          -51605.84921 eV
Two Electron Energy:          638.33404455 Eh           17369.95242 eV
Max COSX asymmetry :            0.00000372 Eh               0.00010 eV
CPCM Dielectric    :           -5.12582852 Eh            -139.48089 eV

Virial components:
Potential Energy   :        -2239.42620265 Eh          -60937.88500 eV
Kinetic Energy     :         1119.41879309 Eh           30460.93396 eV
Virial Ratio       :            2.00052582


DFT components:
N(Alpha)           :       27.000544546719 electrons
N(Beta)            :       27.000544546719 electrons
N(Total)           :       54.001089093438 electrons
E(X)               :      -57.654779957021 Eh       
E(C)               :       -2.416513549566 Eh       
E(XC)              :      -60.071293506588 Eh       
DFET-embed. en.    :        0.000000000000 Eh       
CPCM Solvation Model Properties:
Surface-charge          :            7.26537256
Charge-correction       :           -0.51829060 Eh             -14.10340 eV
Free-energy (cav+disp)  :  This term is not implemented in the current solvation scheme

---------------
SCF CONVERGENCE
---------------

  Last Energy change         ...   -1.2503e-09  Tolerance :   1.0000e-08
  Last MAX-Density change    ...    2.6645e-15  Tolerance :   1.0000e-07
  Last RMS-Density change    ...    1.6085e-16  Tolerance :   5.0000e-09
  Last Orbital Gradient      ...    3.1138e-07  Tolerance :   1.0000e-05
  Last Orbital Rotation      ...    1.4067e-07  Tolerance :   1.0000e-05

             **** THE GBW FILE WAS UPDATED (MgCl2_DFT.gbw) ****
             **** DENSITY MgCl2_DFT.scfp WAS UPDATED ****
             **** ENERGY FILE WAS UPDATED (MgCl2_DFT.en.tmp) ****
             **** THE GBW FILE WAS UPDATED (MgCl2_DFT.gbw) ****
             **** DENSITY MgCl2_DFT.scfp WAS UPDATED ****
----------------
ORBITAL ENERGIES
----------------

  NO   OCC          E(Eh)            E(eV) 
   0   2.0000    -101.288901     -2756.2111 
   1   2.0000    -101.288888     -2756.2108 
   2   2.0000     -46.605897     -1268.2109 
   3   2.0000      -9.246829      -251.6190 
   4   2.0000      -9.246828      -251.6190 
   5   2.0000      -7.009741      -190.7447 
   6   2.0000      -7.009727      -190.7444 
   7   2.0000      -7.008204      -190.7029 
   8   2.0000      -7.008188      -190.7025 
   9   2.0000      -7.008187      -190.7025 
  10   2.0000      -7.008171      -190.7020 
  11   2.0000      -2.903320       -79.0033 
  12   2.0000      -1.652215       -44.9591 
  13   2.0000      -1.648214       -44.8502 
  14   2.0000      -1.648210       -44.8501 
  15   2.0000      -0.627836       -17.0843 
  16   2.0000      -0.624434       -16.9917 
  17   2.0000      -0.218147        -5.9361 
  18   2.0000      -0.189979        -5.1696 
  19   2.0000      -0.185220        -5.0401 
  20   2.0000      -0.185097        -5.0367 
  21   2.0000      -0.175601        -4.7784 
  22   2.0000      -0.175526        -4.7763 
  23   2.0000      -0.037111        -1.0098 
  24   2.0000       0.028961         0.7881 
  25   2.0000       0.029552         0.8041 
  26   2.0000       0.082404         2.2423 
  27   0.0000       0.170487         4.6392 
  28   0.0000       0.189424         5.1545 
  29   0.0000       0.189716         5.1624 
  30   0.0000       0.287718         7.8292 
  31   0.0000       0.288379         7.8472 
  32   0.0000       0.382283        10.4025 
  33   0.0000       0.382501        10.4084 
  34   0.0000       0.450946        12.2709 
  35   0.0000       0.524267        14.2660 
  36   0.0000       0.833907        22.6918 
  37   0.0000       0.838826        22.8256 
  38   0.0000       0.950217        25.8567 
  39   0.0000       0.950233        25.8572 
  40   0.0000       0.953014        25.9328 
  41   0.0000       0.954661        25.9776 
  42   0.0000       0.954763        25.9804 
  43   0.0000       0.966287        26.2940 
  44   0.0000       0.966303        26.2944 
  45   0.0000       0.970266        26.4023 
  46   0.0000       0.970316        26.4037 
  47   0.0000       1.007267        27.4091 
  48   0.0000       1.087587        29.5948 
  49   0.0000       1.087720        29.5984 
  50   0.0000       1.232496        33.5379 
  51   0.0000       1.232691        33.5432 
  52   0.0000       1.373556        37.3764 
  53   0.0000       1.507571        41.0231 

                    ********************************
                    * MULLIKEN POPULATION ANALYSIS *
                    ********************************

-----------------------
MULLIKEN ATOMIC CHARGES
-----------------------
   0 Mg:   -7.251502
   1 Cl:   -0.374250
   2 Cl:   -0.374249
Sum of atomic charges:   -8.0000000

--------------------------------
MULLIKEN REDUCED ORBITAL CHARGES
--------------------------------
  0 Mgs       :     6.056379  s :     6.056379
      pz      :     4.095938  p :    12.565946
      px      :     4.394878
      py      :     4.075130
      dz2     :     0.094525  d :     0.629176
      dxz     :     0.165662
      dyz     :     0.049792
      dx2y2   :     0.157486
      dxy     :     0.161711
  1 Cls       :     5.721533  s :     5.721533
      pz      :     3.882382  p :    11.641142
      px      :     3.875657
      py      :     3.883102
      dz2     :     0.001678  d :     0.011575
      dxz     :     0.003095
      dyz     :     0.000895
      dx2y2   :     0.002948
      dxy     :     0.002958
  2 Cls       :     5.721533  s :     5.721533
      pz      :     3.882382  p :    11.641141
      px      :     3.875657
      py      :     3.883102
      dz2     :     0.001678  d :     0.011575
      dxz     :     0.003095
      dyz     :     0.000895
      dx2y2   :     0.002948
      dxy     :     0.002958

------------------------
MULLIKEN OVERLAP CHARGES
------------------------
B(  0-Mg,  1-Cl) :  -3.6356 B(  0-Mg,  2-Cl) :  -3.6356 


                     *******************************
                     * LOEWDIN POPULATION ANALYSIS *
                     *******************************

----------------------
LOEWDIN ATOMIC CHARGES
----------------------
   0 Mg:   -7.404951
   1 Cl:   -0.297525
   2 Cl:   -0.297524

-------------------------------
LOEWDIN REDUCED ORBITAL CHARGES
-------------------------------
  0 Mgs       :     5.966397  s :     5.966397
      pz      :     4.027832  p :    12.235921
      px      :     4.191976
      py      :     4.016113
      dz2     :     0.163083  d :     1.202633
      dxz     :     0.333057
      dyz     :     0.088051
      dx2y2   :     0.313286
      dxy     :     0.305155
  1 Cls       :     5.781681  s :     5.781681
      pz      :     3.840666  p :    11.500603
      px      :     3.817543
      py      :     3.842394
      dz2     :     0.002067  d :     0.015241
      dxz     :     0.004214
      dyz     :     0.001121
      dx2y2   :     0.003974
      dxy     :     0.003865
  2 Cls       :     5.781680  s :     5.781680
      pz      :     3.840666  p :    11.500602
      px      :     3.817543
      py      :     3.842394
      dz2     :     0.002067  d :     0.015241
      dxz     :     0.004214
      dyz     :     0.001121
[...]
                     *******************************

----------------------
LOEWDIN ATOMIC CHARGES
----------------------
   0 Mg:   -6.025930
   1 Cl:   -0.987035
   2 Cl:   -0.987035

-------------------------------
LOEWDIN REDUCED ORBITAL CHARGES
-------------------------------
  0 Mgs       :     6.009245  s :     6.009245
      pz      :     3.999478  p :    11.996459
      px      :     3.997353
      py      :     3.999628
      dz2     :     0.001747  d :     0.020226
      dxz     :     0.006541
      dyz     :     0.001077
      dx2y2   :     0.005936
      dxy     :     0.004925
  1 Cls       :     6.001702  s :     6.001702
      pz      :     3.997431  p :    11.984779
      px      :     3.989351
      py      :     3.997997
      dz2     :     0.000052  d :     0.000554
      dxz     :     0.000176
      dyz     :     0.000031
      dx2y2   :     0.000160
      dxy     :     0.000136
  2 Cls       :     6.001702  s :     6.001702
      pz      :     3.997431  p :    11.984779
      px      :     3.989351
      py      :     3.997997
      dz2     :     0.000052  d :     0.000554
      dxz     :     0.000176
      dyz     :     0.000031
      dx2y2   :     0.000160
      dxy     :     0.000136

---------------------------------
LOEWDIN BOND ORDERS (THRESH 0.050000)
---------------------------------
B(  0-Mg,  1-Cl) :   0.0514 B(  0-Mg,  2-Cl) :   0.0514 

------------------------------------------
LOEWDIN REDUCED ORBITAL POPULATIONS PER MO
-------------------------------------------
THRESHOLD FOR PRINTING IS 0.1%
                      0         1         2         3         4         5   
                 -101.30761 -101.30761 -46.57546  -9.25933  -9.25933  -7.02242
                   2.00000   2.00000   2.00000   2.00000   2.00000   2.00000
                  --------  --------  --------  --------  --------  --------
 0 Mg s               0.0       0.0     100.0       0.0       0.0       0.0
 1 Cl s              50.6      49.4       0.0      50.7      49.3       0.0
 1 Cl pz              0.0       0.0       0.0       0.0       0.0       8.2
 1 Cl px              0.0       0.0       0.0       0.0       0.0      38.1
 1 Cl py              0.0       0.0       0.0       0.0       0.0       4.2
 2 Cl s              49.4      50.6       0.0      49.3      50.7       0.0
 2 Cl pz              0.0       0.0       0.0       0.0       0.0       8.0
 2 Cl px              0.0       0.0       0.0       0.0       0.0      37.4
 2 Cl py              0.0       0.0       0.0       0.0       0.0       4.1

                      6         7         8         9        10        11   
                  -7.02242  -7.02236  -7.02236  -7.02236  -7.02236  -2.87856
                   2.00000   2.00000   2.00000   2.00000   2.00000   2.00000
                  --------  --------  --------  --------  --------  --------
 0 Mg s               0.0       0.0       0.0       0.0       0.0     100.0
 1 Cl pz              8.0       7.5       6.3      38.6      31.4       0.0
 1 Cl px             37.4      10.8       8.8       2.7       2.2       0.0
 1 Cl py              4.1      36.8      29.8      13.7      11.4       0.0
 2 Cl pz              8.2       6.1       7.7      31.6      38.4       0.0
 2 Cl px             38.1       8.8      10.8       2.2       2.7       0.0
 2 Cl py              4.2      30.0      36.5      11.2      14.0       0.0

                     12        13        14        15        16        17   
                  -1.62426  -1.62426  -1.62426  -0.61920  -0.61920  -0.17676
                   2.00000   2.00000   2.00000   2.00000   2.00000   2.00000
                  --------  --------  --------  --------  --------  --------
 0 Mg s               0.0       0.0       0.0       0.0       0.2       8.3
 0 Mg pz              3.6      77.1      19.4       0.0       0.0       0.0
 0 Mg px             19.0      22.7      58.3       0.2       0.0       0.0
 0 Mg py             77.4       0.2      22.3       0.0       0.0       0.0
 0 Mg dxz             0.0       0.0       0.0       0.0       0.0       0.3
 0 Mg dx2y2           0.0       0.0       0.0       0.0       0.0       0.3
 0 Mg dxy             0.0       0.0       0.0       0.0       0.0       0.2
 1 Cl s               0.0       0.0       0.0      50.1      49.6       0.0
 1 Cl pz              0.0       0.0       0.0       0.0       0.0       6.8
 1 Cl px              0.0       0.0       0.0       0.0       0.0      33.6
 1 Cl py              0.0       0.0       0.0       0.0       0.0       5.0
 2 Cl s               0.0       0.0       0.0      49.6      50.2       0.0
 2 Cl pz              0.0       0.0       0.0       0.0       0.0       6.8
 2 Cl px              0.0       0.0       0.0       0.0       0.0      33.6
 2 Cl py              0.0       0.0       0.0       0.0       0.0       5.0

                     18        19        20        21        22        23   
                  -0.17583  -0.17198  -0.17197  -0.17188  -0.17187  -0.12431
                   2.00000   2.00000   2.00000   2.00000   2.00000   2.00000
                  --------  --------  --------  --------  --------  --------
 0 Mg s               0.0       0.0       0.0       0.0       0.0      92.0
 0 Mg pz              0.7       0.1       0.1       0.0       0.0       0.0
 0 Mg px              3.5       0.0       0.0       0.0       0.0       0.0
 0 Mg py              0.5       0.0       0.1       0.0       0.0       0.0
 1 Cl pz              7.2      24.2      18.2      24.2      18.2       0.6
 1 Cl px             35.2      12.9       0.1      12.9       0.1       2.9
 1 Cl py              5.2      12.8      31.7      12.9      31.7       0.4
 2 Cl pz              7.2      24.2      18.2      24.2      18.2       0.6
 2 Cl px             35.2      12.9       0.1      12.9       0.1       2.9
 2 Cl py              5.2      12.8      31.7      12.9      31.7       0.4

                     24        25        26        27        28        29   
                  -0.02228  -0.01582  -0.01577   0.15171   0.18668   0.19156
                   2.00000   2.00000   2.00000   0.00000   0.00000   0.00000
                  --------  --------  --------  --------  --------  --------
 0 Mg s               0.0       0.0       0.0      97.1       0.9       0.0
 0 Mg pz             14.3      37.0      47.8       0.0       0.0       0.0
 0 Mg px             70.2       0.1      25.8       0.0       0.0       0.0
 0 Mg py             10.4      62.8      26.2       0.0       0.0       0.0
 0 Mg dz2             0.0       0.0       0.0       0.0       7.3      23.0
 0 Mg dxz             0.0       0.0       0.0       0.2      32.5      17.5
 0 Mg dyz             0.0       0.0       0.0       0.0       4.8      17.7
 0 Mg dx2y2           0.0       0.0       0.0       0.1      29.2      35.5
 0 Mg dxy             0.0       0.0       0.0       0.1      23.3       6.3
 1 Cl s               0.3       0.0       0.0       0.7       0.5       0.0
 1 Cl pz              0.3       0.0       0.0       0.1       0.1       0.0
 1 Cl px              1.7       0.0       0.0       0.4       0.4       0.0
 1 Cl py              0.3       0.1       0.0       0.1       0.1       0.0
 2 Cl s               0.3       0.0       0.0       0.7       0.5       0.0
 2 Cl pz              0.3       0.0       0.0       0.1       0.1       0.0
 2 Cl px              1.7       0.0       0.0       0.4       0.4       0.0
 2 Cl py              0.3       0.1       0.0       0.1       0.1       0.0

                     30        31        32        33        34        35   
                   0.19159   0.19790   0.19790   0.38800   0.39968   0.39970
                   0.00000   0.00000   0.00000   0.00000   0.00000   0.00000
                  --------  --------  --------  --------  --------  --------
 0 Mg pz              0.0       0.0       0.0      13.5      35.3      49.8
 0 Mg px              0.0       0.0       0.0      67.4       0.2      25.5
 0 Mg py              0.0       0.0       0.0       9.8      64.5      24.6
 0 Mg dz2            15.3      35.6      18.6       0.0       0.0       0.0
 0 Mg dxz            27.0       0.6      21.4       0.0       0.0       0.0
 0 Mg dyz             1.5      37.0      38.9       0.0       0.0       0.0
 0 Mg dx2y2           9.4       3.9      21.1       0.0       0.0       0.0
 0 Mg dxy            46.7      22.9       0.0       0.0       0.0       0.0
 1 Cl s               0.0       0.0       0.0       4.0       0.0       0.0
 1 Cl px              0.0       0.0       0.0       0.4       0.0       0.0
 2 Cl s               0.0       0.0       0.0       4.0       0.0       0.0
 2 Cl px              0.0       0.0       0.0       0.4       0.0       0.0

                     36        37        38        39        40        41   
                   0.57364   0.58409   0.94326   0.94327   0.94331   0.94331
                   0.00000   0.00000   0.00000   0.00000   0.00000   0.00000
                  --------  --------  --------  --------  --------  --------
 0 Mg s               1.0       0.0       0.0       0.0       0.0       0.0
 0 Mg pz              0.0       1.2       0.0       0.0       0.0       0.0
 0 Mg px              0.0       5.7       0.0       0.0       0.0       0.0
 0 Mg py              0.0       0.8       0.0       0.0       0.0       0.0
 0 Mg dxz             0.3       0.0       0.0       0.0       0.0       0.0
 0 Mg dx2y2           0.3       0.0       0.0       0.0       0.0       0.0
 0 Mg dxy             0.2       0.0       0.0       0.0       0.0       0.0
 1 Cl s              48.7      45.6       0.0       0.0       0.0       0.0
 1 Cl px              0.2       0.4       0.0       0.0       0.0       0.0
 1 Cl dz2             0.0       0.0       6.2       7.0      19.0      17.4
 1 Cl dxz             0.0       0.0       0.0       0.0      10.5       9.2
 1 Cl dyz             0.0       0.0      29.2      29.2       8.2       7.0
 1 Cl dx2y2           0.0       0.0       0.0       0.0      14.3      13.2
 1 Cl dxy             0.0       0.0      14.5      13.8       0.7       0.7
 2 Cl s              48.7      45.6       0.0       0.0       0.0       0.0
 2 Cl px              0.2       0.4       0.0       0.0       0.0       0.0
 2 Cl dz2             0.0       0.0       6.2       6.9      17.1      19.3
 2 Cl dxz             0.0       0.0       0.0       0.0       9.4      10.2
 2 Cl dyz             0.0       0.0      29.3      29.1       7.4       7.8
 2 Cl dx2y2           0.0       0.0       0.0       0.0      12.8      14.6
 2 Cl dxy             0.0       0.0      14.6      13.8       0.7       0.7

                     42        43        44        45        46        47   
                   0.94367   0.94371   0.94378   0.94382   0.94461   0.94506
                   0.00000   0.00000   0.00000   0.00000   0.00000   0.00000
                  --------  --------  --------  --------  --------  --------
 1 Cl px              0.0       0.0       0.0       0.0       0.2       0.4
 1 Cl dz2            19.6       0.2      19.7       0.2       5.6       5.1
 1 Cl dxz            23.5       3.4      22.7       3.1      13.2      14.0
 1 Cl dyz             2.4       8.5       2.7       7.9       2.5       2.4
 1 Cl dx2y2           4.2      17.4       4.5      17.2      14.4      14.5
 1 Cl dxy             0.2      20.5       0.4      21.5      14.0      13.4
 2 Cl px              0.0       0.0       0.0       0.0       0.2       0.4
 2 Cl dz2            19.6       0.2      19.6       0.2       5.6       5.1
 2 Cl dxz            23.5       3.4      22.7       3.1      13.2      14.0
 2 Cl dyz             2.4       8.5       2.7       7.9       2.5       2.4
 2 Cl dx2y2           4.2      17.4       4.5      17.2      14.4      14.5
 2 Cl dxy             0.2      20.5       0.4      21.5      13.9      13.4

                     48        49        50        51        52        53   
                   0.99882   0.99884   0.99938   0.99939   1.02301   1.03000
                   0.00000   0.00000   0.00000   0.00000   0.00000   0.00000
                  --------  --------  --------  --------  --------  --------
 0 Mg s               0.0       0.0       0.0       0.0       0.4       0.0
 0 Mg pz              0.0       0.0       0.1       0.0       0.0       0.2
 0 Mg px              0.0       0.0       0.0       0.0       0.0       1.2
 0 Mg py              0.0       0.0       0.0       0.1       0.0       0.2
 0 Mg dxz             0.0       0.0       0.0       0.0       0.2       0.0
 0 Mg dx2y2           0.0       0.0       0.0       0.0       0.1       0.0
 0 Mg dxy             0.0       0.0       0.0       0.0       0.1       0.0
 1 Cl s               0.0       0.0       0.0       0.0       0.1       0.2
 1 Cl pz             42.4       0.1      42.4       0.1       7.3       7.2
 1 Cl px              5.9       7.0       5.8       7.1      36.4      36.0
 1 Cl py              1.6      42.9       1.7      42.8       5.4       5.3
 1 Cl dxz             0.0       0.0       0.0       0.0       0.1       0.2
 1 Cl dx2y2           0.0       0.0       0.0       0.0       0.1       0.1
 1 Cl dxy             0.0       0.0       0.0       0.0       0.1       0.1
 2 Cl s               0.0       0.0       0.0       0.0       0.1       0.2
 2 Cl pz             42.4       0.1      42.4       0.1       7.3       7.2
 2 Cl px              5.9       7.0       5.8       7.1      36.4      36.0
 2 Cl py              1.6      42.9       1.7      42.8       5.4       5.3
 2 Cl dxz             0.0       0.0       0.0       0.0       0.1       0.2
 2 Cl dx2y2           0.0       0.0       0.0       0.0       0.1       0.1
 2 Cl dxy             0.0       0.0       0.0       0.0       0.1       0.1



                      *****************************
                      * MAYER POPULATION ANALYSIS *
                      *****************************

  NA   - Mulliken gross atomic population
  ZA   - Total nuclear charge
  QA   - Mulliken gross atomic charge
  VA   - Mayer's total valence
  BVA  - Mayer's bonded valence
  FA   - Mayer's free valence

  ATOM       NA         ZA         QA         VA         BVA        FA
  0 Mg    18.0367    12.0000    -6.0367     0.0897     0.0897     0.0000
  1 Cl    17.9816    17.0000    -0.9816     0.0452     0.0452    -0.0000
  2 Cl    17.9816    17.0000    -0.9816     0.0452     0.0452     0.0000

  Mayer bond orders larger than 0.100000


-------
TIMINGS
-------

Total SCF time: 0 days 0 hours 0 min 6 sec 

Total time                  ....       6.501 sec
Sum of individual times     ....       6.164 sec  ( 94.8%)

Fock matrix formation       ....       5.003 sec  ( 77.0%)
  Split-RI-J                ....       0.411 sec  (  8.2% of F)
  Chain of spheres X        ....       3.494 sec  ( 69.8% of F)
  XC integration            ....       0.503 sec  ( 10.1% of F)
    Basis function eval.    ....       0.045 sec  (  8.9% of XC)
    Density eval.           ....       0.098 sec  ( 19.4% of XC)
    XC-Functional eval.     ....       0.173 sec  ( 34.4% of XC)
    XC-Potential eval.      ....       0.089 sec  ( 17.6% of XC)
Diagonalization             ....       0.001 sec  (  0.0%)
Density matrix formation    ....       0.000 sec  (  0.0%)
Population analysis         ....       0.081 sec  (  1.2%)
Initial guess               ....       0.082 sec  (  1.3%)
Orbital Transformation      ....       0.000 sec  (  0.0%)
Orbital Orthonormalization  ....       0.001 sec  (  0.0%)
DIIS solution               ....       0.000 sec  (  0.0%)
SOSCF solution              ....       0.001 sec  (  0.0%)
Grid generation             ....       0.995 sec  ( 15.3%)

Maximum memory used throughout the entire SCF-calculation: 46.3 MB

-------------------------   --------------------
FINAL SINGLE POINT ENERGY     -1120.372421181832
-------------------------   --------------------

                                *** OPTIMIZATION RUN DONE ***

                            ***************************************
                            *     ORCA property calculations      *
                            ***************************************

                                    ---------------------
                                    Active property flags
                                    ---------------------
   (+) Dipole Moment


------------------------------------------------------------------------------
                       ORCA ELECTRIC PROPERTIES CALCULATION
------------------------------------------------------------------------------

Dipole Moment Calculation                       ... on
Quadrupole Moment Calculation                   ... off
Polarizability Calculation                      ... off
GBWName                                         ... MgCl2_DFT.gbw
Electron density                                ... MgCl2_DFT.scfp
SHARK General Contraction Test:  Segmented basis detected
   -> Pre-screening matrix found on disk - Trying to read with NShells=24
   -> Passing Pre-screening matrix on to SHARK ...ok
   -> Leaving CheckPreScreeningMatrix
----------------------
SHARK INTEGRAL PACKAGE
----------------------

Number of atoms                             ...      3
Number of basis functions                   ...     54
Number of shells                            ...     24
Maximum angular momentum                    ...      2
Integral batch strategy                     ... SHARK/LIBINT Hybrid
RI-J (if used) integral strategy            ... SPLIT-RIJ (Revised 2003 algorithm where possible)
Printlevel                                  ...      2
Contraction scheme used                     ... SEGMENTED contraction
Coulomb Range Separation                    ... NOT USED
Exchange Range Separation                   ... NOT USED
Finite Nucleus Model                        ... NOT USED
Auxiliary Coulomb fitting basis             ... AVAILABLE
   # of basis functions in Aux-J            ...    158
   # of shells in Aux-J                     ...     52
   Maximum angular momentum in Aux-J        ...      4
Auxiliary J/K fitting basis                 ... NOT available
Auxiliary Correlation fitting basis         ... NOT available
Auxiliary 'external' fitting basis          ... NOT available
Integral threshold                          ...     2.500000e-11
Primitive cut-off                           ...     2.500000e-12
Primitive pair pre-selection threshold      ...     2.500000e-12

The origin for moment calculation is the CENTER OF MASS  = ( 1.866550,  0.129911  0.036595)

-------------
DIPOLE MOMENT
-------------
                                X             Y             Z
Electronic contribution:     -0.00010      -0.00006      -0.00015
Nuclear contribution   :      0.00001       0.00000       0.00001
                        -----------------------------------------
Total Dipole Moment    :     -0.00009      -0.00006      -0.00014
                        -----------------------------------------
Magnitude (a.u.)       :      0.00018
Magnitude (Debye)      :      0.00045



--------------------
Rotational spectrum 
--------------------
 
Rotational constants in cm-1: 1537307640.005968     0.010441     0.010441 
Rotational constants in MHz : 46087323609956.828125   313.000961   313.000961 

 Dipole components along the rotational axes: 
x,y,z [a.u.] :     0.000005    -0.000177     0.000000 
x,y,z [Debye]:     0.000013    -0.000449     0.000000 

 

Timings for individual modules:

Sum of individual times         ...      679.442 sec (=  11.324 min)
GTO integral calculation        ...       17.022 sec (=   0.284 min)   2.5 %
SCF iterations                  ...      501.354 sec (=   8.356 min)  73.8 %
SCF Gradient evaluation         ...      157.820 sec (=   2.630 min)  23.2 %
Geometry relaxation             ...        3.246 sec (=   0.054 min)   0.5 %
                             ****ORCA TERMINATED NORMALLY****
TOTAL RUN TIME: 0 days 0 hours 11 minutes 33 seconds 603 msec
