
                                 *****************
                                 * O   R   C   A *
                                 *****************

                                            #,                                       
                                            ###                                      
                                            ####                                     
                                            #####                                    
                                            ######                                   
                                           ########,                                 
                                     ,,################,,,,,                         
                               ,,#################################,,                 
                          ,,##########################################,,             
                       ,#########################################, ''#####,          
                    ,#############################################,,   '####,        
                  ,##################################################,,,,####,       
                ,###########''''           ''''###############################       
              ,#####''   ,,,,##########,,,,          '''####'''          '####       
            ,##' ,,,,###########################,,,                        '##       
           ' ,,###''''                  '''############,,,                           
         ,,##''                                '''############,,,,        ,,,,,,###''
      ,#''                                            '''#######################'''  
     '                                                          ''''####''''         
             ,#######,   #######,   ,#######,      ##                                
            ,#'     '#,  ##    ##  ,#'     '#,    #''#        ######   ,####,        
            ##       ##  ##   ,#'  ##            #'  '#       #        #'  '#        
            ##       ##  #######   ##           ,######,      #####,   #    #        
            '#,     ,#'  ##    ##  '#,     ,#' ,#      #,         ##   #,  ,#        
             '#######'   ##     ##  '#######'  #'      '#     #####' # '####'        



                  #######################################################
                  #                        -***-                        #
                  #          Department of theory and spectroscopy      #
                  #    Directorship and core code : Frank Neese         #
                  #        Max Planck Institute fuer Kohlenforschung    #
                  #                Kaiser Wilhelm Platz 1               #
                  #                 D-45470 Muelheim/Ruhr               #
                  #                      Germany                        #
                  #                                                     #
                  #                  All rights reserved                #
                  #                        -***-                        #
                  #######################################################


                         Program Version 5.0.4 -  RELEASE  -


 With contributions from (in alphabetic order):
   Daniel Aravena         : Magnetic Suceptibility
   Michael Atanasov       : Ab Initio Ligand Field Theory (pilot matlab implementation)
   Alexander A. Auer      : GIAO ZORA, VPT2 properties, NMR spectrum
   Ute Becker             : Parallelization
   Giovanni Bistoni       : ED, misc. LED, open-shell LED, HFLD
   Martin Brehm           : Molecular dynamics
   Dmytro Bykov           : SCF Hessian
   Vijay G. Chilkuri      : MRCI spin determinant printing, contributions to CSF-ICE
   Dipayan Datta          : RHF DLPNO-CCSD density
   Achintya Kumar Dutta   : EOM-CC, STEOM-CC
   Dmitry Ganyushin       : Spin-Orbit,Spin-Spin,Magnetic field MRCI
   Miquel Garcia          : C-PCM and meta-GGA Hessian, CC/C-PCM, Gaussian charge scheme
   Yang Guo               : DLPNO-NEVPT2, F12-NEVPT2, CIM, IAO-localization
   Andreas Hansen         : Spin unrestricted coupled pair/coupled cluster methods
   Benjamin Helmich-Paris : MC-RPA, TRAH-SCF, COSX integrals
   Lee Huntington         : MR-EOM, pCC
   Robert Izsak           : Overlap fitted RIJCOSX, COSX-SCS-MP3, EOM
   Marcus Kettner         : VPT2
   Christian Kollmar      : KDIIS, OOCD, Brueckner-CCSD(T), CCSD density, CASPT2, CASPT2-K
   Simone Kossmann        : Meta GGA functionals, TD-DFT gradient, OOMP2, MP2 Hessian
   Martin Krupicka        : Initial AUTO-CI
   Lucas Lang             : DCDCAS
   Marvin Lechner         : AUTO-CI (C++ implementation), FIC-MRCC
   Dagmar Lenk            : GEPOL surface, SMD
   Dimitrios Liakos       : Extrapolation schemes; Compound Job, initial MDCI parallelization
   Dimitrios Manganas     : Further ROCIS development; embedding schemes
   Dimitrios Pantazis     : SARC Basis sets
   Anastasios Papadopoulos: AUTO-CI, single reference methods and gradients
   Taras Petrenko         : DFT Hessian,TD-DFT gradient, ASA, ECA, R-Raman, ABS, FL, XAS/XES, NRVS
   Peter Pinski           : DLPNO-MP2, DLPNO-MP2 Gradient
   Christoph Reimann      : Effective Core Potentials
   Marius Retegan         : Local ZFS, SOC
   Christoph Riplinger    : Optimizer, TS searches, QM/MM, DLPNO-CCSD(T), (RO)-DLPNO pert. Triples
   Tobias Risthaus        : Range-separated hybrids, TD-DFT gradient, RPA, STAB
   Michael Roemelt        : Original ROCIS implementation
   Masaaki Saitow         : Open-shell DLPNO-CCSD energy and density
   Barbara Sandhoefer     : DKH picture change effects
   Avijit Sen             : IP-ROCIS
   Kantharuban Sivalingam : CASSCF convergence, NEVPT2, FIC-MRCI
   Bernardo de Souza      : ESD, SOC TD-DFT
   Georgi Stoychev        : AutoAux, RI-MP2 NMR, DLPNO-MP2 response
   Willem Van den Heuvel  : Paramagnetic NMR
   Boris Wezisla          : Elementary symmetry handling
   Frank Wennmohs         : Technical directorship


 We gratefully acknowledge several colleagues who have allowed us to
 interface, adapt or use parts of their codes:
   Stefan Grimme, W. Hujo, H. Kruse, P. Pracht,  : VdW corrections, initial TS optimization,
                  C. Bannwarth, S. Ehlert          DFT functionals, gCP, sTDA/sTD-DF
   Ed Valeev, F. Pavosevic, A. Kumar             : LibInt (2-el integral package), F12 methods
   Garnet Chan, S. Sharma, J. Yang, R. Olivares  : DMRG
   Ulf Ekstrom                                   : XCFun DFT Library
   Mihaly Kallay                                 : mrcc  (arbitrary order and MRCC methods)
   Jiri Pittner, Ondrej Demel                    : Mk-CCSD
   Frank Weinhold                                : gennbo (NPA and NBO analysis)
   Christopher J. Cramer and Donald G. Truhlar   : smd solvation model
   Lars Goerigk                                  : TD-DFT with DH, B97 family of functionals
   V. Asgeirsson, H. Jonsson                     : NEB implementation
   FAccTs GmbH                                   : IRC, NEB, NEB-TS, DLPNO-Multilevel, CI-OPT
                                                   MM, QMMM, 2- and 3-layer-ONIOM, Crystal-QMMM,
                                                   LR-CPCM, SF, NACMEs, symmetry and pop. for TD-DFT,
                                                   nearIR, NL-DFT gradient (VV10), updates on ESD,
                                                   ML-optimized integration grids
   S Lehtola, MJT Oliveira, MAL Marques          : LibXC Library
   Liviu Ungur et al                             : ANISO software


 Your calculation uses the libint2 library for the computation of 2-el integrals
 For citations please refer to: http://libint.valeyev.net

 Your ORCA version has been built with support for libXC version: 5.1.0
 For citations please refer to: https://tddft.org/programs/libxc/

 This ORCA versions uses:
   CBLAS   interface :  Fast vector & matrix operations
   LAPACKE interface :  Fast linear algebra routines
   SCALAPACK package :  Parallel linear algebra routines
   Shared memory     :  Shared parallel matrices
   BLAS/LAPACK       :  OpenBLAS 0.3.15  USE64BITINT DYNAMIC_ARCH NO_AFFINITY SkylakeX SINGLE_THREADED
        Core in use  :  SkylakeX
   Copyright (c) 2011-2014, The OpenBLAS Project


================================================================================

----- Orbital basis set information -----
Your calculation utilizes the basis: def2-SVP
   F. Weigend and R. Ahlrichs, Phys. Chem. Chem. Phys. 7, 3297 (2005).

----- AuxJ basis set information -----
Your calculation utilizes the auxiliary basis: def2/J
   F. Weigend, Phys. Chem. Chem. Phys. 8, 1057 (2006).

================================================================================
                                        WARNINGS
                       Please study these warnings very carefully!
================================================================================


WARNING: Geometry Optimization
  ===> : Switching off AutoStart
         For restart on a previous wavefunction, please use MOREAD

INFO   : the flag for use of the SHARK integral package has been found!

================================================================================
                                       INPUT FILE
================================================================================
NAME = Caffeine_DFT.inp
|  1> ## avogadro generated ORCA input file 
|  2> # Advanced Mode
|  3> # 
|  4> ! B3LYP OPT def2-SVP NormalPrint defgrid2 NormalSCF 
|  5> 
|  6> ! CPCM
|  7> %cpcm
|  8> epsilon 69.0
|  9> refrac 1.34
| 10> end
| 11> 
| 12> %scf
| 13> 	MaxIter 125
| 14> 	CNVDIIS 1
| 15> 	CNVSOSCF 1 
| 16> end
| 17> 
| 18> * xyz 0 1
| 19>    C        1.06638        0.09433       -0.07344
| 20>    N        2.50689        0.06312       -0.07386
| 21>    C        3.33974        1.15079       -0.07559
| 22>    N        4.60831        0.79175       -0.07554
| 23>    C        4.57507       -0.57002       -0.07368
| 24>    C        3.30001       -1.04823       -0.07261
| 25>    C        2.98806       -2.43469       -0.07061
| 26>    O        1.83501       -2.85539       -0.06973
| 27>    N        4.12692       -3.24546       -0.06977
| 28>    C        5.46187       -2.78890       -0.07088
| 29>    O        6.40469       -3.58619       -0.07008
| 30>    N        5.66348       -1.40827       -0.07291
| 31>    C        7.00606       -0.85676       -0.07412
| 32>    C        3.94201       -4.68340       -0.06764
| 33>    H        0.72421        1.13244       -0.07453
| 34>    H        0.70751       -0.41061        0.82684
| 35>    H        0.70694       -0.41271       -0.97230
| 36>    H        2.97582        2.17070       -0.07684
| 37>    H        7.76877       -1.63981       -0.07352
| 38>    H        7.13934       -0.23879        0.81950
| 39>    H        7.13859       -0.24089       -0.96931
| 40>    H        2.88812       -4.97218       -0.06673
| 41>    H        4.42554       -5.10283        0.82078
| 42>    H        4.42471       -5.10536       -0.95530
| 43> *
| 44> 
| 45> 
| 46>                          ****END OF INPUT****
================================================================================

                       *****************************
                       * Geometry Optimization Run *
                       *****************************

Geometry optimization settings:
Update method            Update   .... BFGS
Choice of coordinates    CoordSys .... Z-matrix Internals
Initial Hessian          InHess   .... Almoef's Model

Convergence Tolerances:
Energy Change            TolE     ....  5.0000e-06 Eh
Max. Gradient            TolMAXG  ....  3.0000e-04 Eh/bohr
RMS Gradient             TolRMSG  ....  1.0000e-04 Eh/bohr
Max. Displacement        TolMAXD  ....  4.0000e-03 bohr
RMS Displacement         TolRMSD  ....  2.0000e-03 bohr
Strict Convergence                ....  False
------------------------------------------------------------------------------
                        ORCA OPTIMIZATION COORDINATE SETUP
------------------------------------------------------------------------------

The optimization will be done in new redundant internal coordinates
Making redundant internal coordinates   ...  (new redundants) done
Evaluating the initial hessian          ...  (Almloef) done
Evaluating the coordinates              ...  done
Calculating the B-matrix                .... done
Calculating the G-matrix                .... done
Diagonalizing the G-matrix              .... done
Small eigenvalue found = 2.438e-02
The first mode is                       ....   56
The number of degrees of freedom        ....   66

    -----------------------------------------------------------------
                    Redundant Internal Coordinates


    -----------------------------------------------------------------
         Definition                    Initial Value    Approx d2E/dq
    -----------------------------------------------------------------
      1. B(N   1,C   0)                  1.4408         0.464249   
      2. B(C   2,N   1)                  1.3699         0.602447   
      3. B(N   3,C   2)                  1.3184         0.727961   
      4. B(C   4,N   3)                  1.3622         0.619820   
      5. B(C   5,C   4)                  1.3618         0.693028   
      6. B(C   5,N   1)                  1.3653         0.612670   
      7. B(C   6,C   5)                  1.4211         0.557295   
      8. B(O   7,C   6)                  1.2274         1.016931   
      9. B(N   8,C   6)                  1.3980         0.543428   
     10. B(C   9,N   8)                  1.4109         0.518307   
     11. B(O  10,C   9)                  1.2347         0.989883   
     12. B(N  11,C   9)                  1.3953         0.548859   
     13. B(N  11,C   4)                  1.3738         0.593932   
     14. B(C  12,N  11)                  1.4514         0.446527   
     15. B(C  13,N   8)                  1.4498         0.449259   
     16. B(H  14,C   0)                  1.0930         0.356090   
     17. B(H  15,C   0)                  1.0928         0.356388   
     18. B(H  16,C   0)                  1.0928         0.356400   
     19. B(H  17,C   2)                  1.0829         0.369626   
     20. B(H  18,C  12)                  1.0931         0.356006   
     21. B(H  19,C  12)                  1.0946         0.354031   
     22. B(H  20,C  12)                  1.0946         0.354021   
     23. B(H  21,C  13)                  1.0927         0.356495   
     24. B(H  22,C  13)                  1.0950         0.353553   
     25. B(H  23,C  13)                  1.0950         0.353567   
     26. A(N   1,C   0,H  16)          108.5750         0.333576   
     27. A(H  14,C   0,H  15)          109.6851         0.289857   
     28. A(N   1,C   0,H  14)          109.4838         0.333528   
     29. A(N   1,C   0,H  15)          108.5749         0.333574   
     30. A(H  14,C   0,H  16)          109.6865         0.289859   
     31. A(H  15,C   0,H  16)          110.8063         0.289897   
     32. A(C   2,N   1,C   5)          107.0443         0.425305   
     33. A(C   0,N   1,C   5)          126.7549         0.406044   
     34. A(C   0,N   1,C   2)          126.2008         0.404839   
     35. A(N   3,C   2,H  17)          125.4401         0.362031   
     36. A(N   1,C   2,H  17)          122.9209         0.350583   
     37. A(N   1,C   2,N   3)          111.6390         0.438689   
     38. A(C   2,N   3,C   4)          104.4047         0.440946   
     39. A(N   3,C   4,N  11)          126.2038         0.425105   
     40. A(N   3,C   4,C   5)          111.9568         0.439938   
     41. A(C   5,C   4,N  11)          121.8394         0.436566   
     42. A(N   1,C   5,C   4)          104.9552         0.439018   
     43. A(C   4,C   5,C   6)          123.2388         0.434435   
     44. A(N   1,C   5,C   6)          131.8061         0.422168   
     45. A(O   7,C   6,N   8)          124.5074         0.457475   
     46. A(C   5,C   6,N   8)          112.7674         0.413246   
     47. A(C   5,C   6,O   7)          122.7252         0.462657   
     48. A(C   6,N   8,C   9)          125.6714         0.405343   
     49. A(C   9,N   8,C  13)          116.2087         0.392006   
     50. A(C   6,N   8,C  13)          118.1199         0.395270   
     51. A(N   8,C   9,O  10)          120.8997         0.451331   
     52. A(O  10,C   9,N  11)          121.9113         0.456058   
     53. A(N   8,C   9,N  11)          117.1890         0.406055   
     54. A(C   9,N  11,C  12)          120.6401         0.395536   
     55. A(C   4,N  11,C  12)          120.0659         0.401061   
     56. A(C   4,N  11,C   9)          119.2940         0.415981   
     57. A(H  19,C  12,H  20)          109.5880         0.289291   
     58. A(H  18,C  12,H  20)          108.6030         0.289543   
     59. A(N  11,C  12,H  20)          109.0538         0.331063   
     60. A(H  18,C  12,H  19)          108.6031         0.289545   
     61. A(N  11,C  12,H  19)          109.0540         0.331065   
     62. A(N  11,C  12,H  18)          111.9140         0.331370   
     63. A(H  21,C  13,H  23)          108.9045         0.289547   
     64. A(N   8,C  13,H  23)          108.9531         0.331327   
     65. A(H  21,C  13,H  22)          108.9038         0.289546   
     66. A(N   8,C  13,H  22)          108.9526         0.331325   
     67. A(H  22,C  13,H  23)          108.3884         0.289172   
     68. A(N   8,C  13,H  21)          112.6514         0.331780   
     69. D(C   5,N   1,C   0,H  14)    179.9886         0.018405   
     70. D(C   5,N   1,C   0,H  15)     60.2633         0.018405   
     71. D(C   2,N   1,C   0,H  16)    119.7162         0.018405   
     72. D(C   2,N   1,C   0,H  14)     -0.0109         0.018405   
     73. D(C   2,N   1,C   0,H  15)   -119.7362         0.018405   
     74. D(C   5,N   1,C   0,H  16)    -60.2843         0.018405   
     75. D(N   3,C   2,N   1,C   0)   -179.9988         0.029262   
     76. D(H  17,C   2,N   1,C   5)   -179.9993         0.029262   
     77. D(H  17,C   2,N   1,C   0)      0.0003         0.029262   
     78. D(N   3,C   2,N   1,C   5)      0.0016         0.029262   
     79. D(C   4,N   3,C   2,H  17)    179.9994         0.039995   
     80. D(C   4,N   3,C   2,N   1)     -0.0015         0.039995   
     81. D(N  11,C   4,N   3,C   2)   -179.9996         0.028185   
     82. D(C   5,C   4,N   3,C   2)      0.0009         0.028185   
     83. D(C   4,C   5,N   1,C   0)    179.9994         0.030340   
     84. D(C   6,C   5,C   4,N  11)      0.0011         0.033770   
     85. D(C   6,C   5,C   4,N   3)   -179.9993         0.033770   
     86. D(N   1,C   5,C   4,N  11)   -179.9994         0.033770   
     87. D(N   1,C   5,C   4,N   3)      0.0001         0.033770   
     88. D(C   6,C   5,N   1,C   2)    179.9983         0.030340   
     89. D(C   6,C   5,N   1,C   0)     -0.0012         0.030340   
     90. D(C   4,C   5,N   1,C   2)     -0.0010         0.030340   
     91. D(N   8,C   6,C   5,C   4)      0.0045         0.021266   
     92. D(N   8,C   6,C   5,N   1)   -179.9948         0.021266   
     93. D(O   7,C   6,C   5,C   4)   -179.9960         0.021266   
     94. D(O   7,C   6,C   5,N   1)      0.0047         0.021266   
     95. D(C  13,N   8,C   6,O   7)     -0.0035         0.023508   
     96. D(C  13,N   8,C   6,C   5)    179.9960         0.023508   
     97. D(C   9,N   8,C   6,O   7)    179.9933         0.023508   
     98. D(C   9,N   8,C   6,C   5)     -0.0072         0.023508   
     99. D(O  10,C   9,N   8,C   6)   -179.9955         0.021293   
    100. D(N  11,C   9,N   8,C  13)   -179.9989         0.021293   
    101. D(N  11,C   9,N   8,C   6)      0.0042         0.021293   
    102. D(O  10,C   9,N   8,C  13)      0.0014         0.021293   
    103. D(C  12,N  11,C   9,O  10)     -0.0020         0.024005   
    104. D(C  12,N  11,C   9,N   8)    179.9983         0.024005   
    105. D(C   4,N  11,C   9,O  10)   -179.9982         0.024005   
    106. D(C   4,N  11,C   9,N   8)      0.0021         0.024005   
    107. D(C  12,N  11,C   4,C   5)    179.9992         0.028384   
    108. D(C  12,N  11,C   4,N   3)     -0.0003         0.028384   
    109. D(C   9,N  11,C   4,C   5)     -0.0046         0.028384   
    110. D(C   9,N  11,C   4,N   3)    179.9959         0.028384   
    111. D(H  20,C  12,N  11,C   9)    120.1959         0.017006   
    112. D(H  20,C  12,N  11,C   4)    -59.8080         0.017006   
    113. D(H  19,C  12,N  11,C   9)   -120.1651         0.017006   
    114. D(H  19,C  12,N  11,C   4)     59.8310         0.017006   
    115. D(H  18,C  12,N  11,C   9)      0.0155         0.017006   
    116. D(H  18,C  12,N  11,C   4)   -179.9884         0.017006   
    117. D(H  23,C  13,N   8,C   9)    -59.0433         0.017217   
    118. D(H  23,C  13,N   8,C   6)    120.9539         0.017217   
    119. D(H  22,C  13,N   8,C   9)     59.0290         0.017217   
    120. D(H  22,C  13,N   8,C   6)   -120.9738         0.017217   
    121. D(H  21,C  13,N   8,C   9)    179.9922         0.017217   
    122. D(H  21,C  13,N   8,C   6)     -0.0106         0.017217   
    -----------------------------------------------------------------

Number of atoms                         .... 24
Number of degrees of freedom            .... 122

         *************************************************************
         *                GEOMETRY OPTIMIZATION CYCLE   1            *
         *************************************************************
---------------------------------
CARTESIAN COORDINATES (ANGSTROEM)
---------------------------------
  C      1.066380    0.094330   -0.073440
  N      2.506890    0.063120   -0.073860
  C      3.339740    1.150790   -0.075590
  N      4.608310    0.791750   -0.075540
  C      4.575070   -0.570020   -0.073680
  C      3.300010   -1.048230   -0.072610
  C      2.988060   -2.434690   -0.070610
  O      1.835010   -2.855390   -0.069730
  N      4.126920   -3.245460   -0.069770
  C      5.461870   -2.788900   -0.070880
  O      6.404690   -3.586190   -0.070080
  N      5.663480   -1.408270   -0.072910
  C      7.006060   -0.856760   -0.074120
  C      3.942010   -4.683400   -0.067640
  H      0.724210    1.132440   -0.074530
  H      0.707510   -0.410610    0.826840
  H      0.706940   -0.412710   -0.972300
  H      2.975820    2.170700   -0.076840
  H      7.768770   -1.639810   -0.073520
  H      7.139340   -0.238790    0.819500
  H      7.138590   -0.240890   -0.969310
  H      2.888120   -4.972180   -0.066730
  H      4.425540   -5.102830    0.820780
  H      4.424710   -5.105360   -0.955300

----------------------------
CARTESIAN COORDINATES (A.U.)
----------------------------
  NO LB      ZA    FRAG     MASS         X           Y           Z
   0 C     6.0000    0    12.011    2.015166    0.178258   -0.138781
   1 N     7.0000    0    14.007    4.737336    0.119280   -0.139575
   2 C     6.0000    0    12.011    6.311194    2.174678   -0.142844
   3 N     7.0000    0    14.007    8.708444    1.496191   -0.142750
   4 C     6.0000    0    12.011    8.645629   -1.077182   -0.139235
   5 C     6.0000    0    12.011    6.236115   -1.980868   -0.137213
   6 C     6.0000    0    12.011    5.646615   -4.600897   -0.133434
   7 O     8.0000    0    15.999    3.467666   -5.395905   -0.131771
   8 N     7.0000    0    14.007    7.798749   -6.133031   -0.131846
   9 C     6.0000    0    12.011   10.321438   -5.270257   -0.133944
  10 O     8.0000    0    15.999   12.103110   -6.776917   -0.132432
  11 N     7.0000    0    14.007   10.702426   -2.661245   -0.137780
  12 C     6.0000    0    12.011   13.239535   -1.619042   -0.140067
  13 C     6.0000    0    12.011    7.449319   -8.850343   -0.127821
  14 H     1.0000    0     1.008    1.368559    2.140001   -0.140841
  15 H     1.0000    0     1.008    1.337000   -0.775940    1.562501
  16 H     1.0000    0     1.008    1.335923   -0.779909   -1.837381
  17 H     1.0000    0     1.008    5.623485    4.102029   -0.145207
  18 H     1.0000    0     1.008   14.680848   -3.098792   -0.138933
  19 H     1.0000    0     1.008   13.491397   -0.451248    1.548631
  20 H     1.0000    0     1.008   13.489980   -0.455216   -1.831730
  21 H     1.0000    0     1.008    5.457756   -9.396058   -0.126101
  22 H     1.0000    0     1.008    8.363059   -9.642951    1.551049
  23 H     1.0000    0     1.008    8.361490   -9.647732   -1.805255

--------------------------------
INTERNAL COORDINATES (ANGSTROEM)
--------------------------------
 C      0   0   0     0.000000000000     0.00000000     0.00000000
 N      1   0   0     1.440848118505     0.00000000     0.00000000
 C      2   1   0     1.369915378518   126.20079897     0.00000000
 N      3   2   1     1.318400382661   111.63899589   180.00121881
 C      4   3   2     1.362176893836   104.40467459     0.00000000
 C      5   4   3     1.361787043777   111.95682344     0.00000000
 C      6   5   4     1.421122139051   123.23878021   180.00069997
 O      7   6   5     1.227401143433   122.72519211   180.00396866
 N      7   6   5     1.397980972009   112.76736206     0.00000000
 C      9   7   6     1.410864900761   125.67140222     0.00000000
 O     10   9   7     1.234739460980   120.89965960   180.00449489
 N      5   4   3     1.373790371017   126.20376116   180.00038138
 C     12   5   4     1.451442661837   120.06586129     0.00000000
 C      9   7   6     1.449781945190   118.11994129   179.99595307
 H      1   2   3     1.093047972003   109.48380914     0.00000000
 H      1   2   3     1.092820277493   108.57486396   240.26377196
 H      1   2   3     1.092811042587   108.57502325   119.71616016
 H      3   2   1     1.082892301663   122.92086153     0.00000000
 H     13  12   5     1.093112165608   111.91401280   180.01164346
 H     13  12   5     1.094626504201   109.05400691    59.83102398
 H     13  12   5     1.094634730812   109.05383354   300.19202394
 H     14   9   7     1.092739149386   112.65138811     0.00000000
 H     14   9   7     1.094994466744   108.95257830   239.02618335
 H     14   9   7     1.094983930110   108.95308868   120.95385830

---------------------------
INTERNAL COORDINATES (A.U.)
---------------------------
 C      0   0   0     0.000000000000     0.00000000     0.00000000
 N      1   0   0     2.722808344551     0.00000000     0.00000000
 C      2   1   0     2.588764892046   126.20079897     0.00000000
 N      3   2   1     2.491415658086   111.63899589   180.00121881
 C      4   3   2     2.574141275305   104.40467459     0.00000000
 C      5   4   3     2.573404565462   111.95682344     0.00000000
 C      6   5   4     2.685531645658   123.23878021   180.00069997
 O      7   6   5     2.319452017550   122.72519211   180.00396866
 N      7   6   5     2.641801177531   112.76736206     0.00000000
 C      9   7   6     2.666148274401   125.67140222     0.00000000
 O     10   9   7     2.333319427997   120.89965960   180.00449489
 N      5   4   3     2.596087566641   126.20376116   180.00038138
 C     12   5   4     2.742829129961   120.06586129     0.00000000
 C      9   7   6     2.739690830313   118.11994129   179.99595307
 H      1   2   3     2.065561318324   109.48380914     0.00000000
 H      1   2   3     2.065131038058   108.57486396   240.26377196
 H      1   2   3     2.065113586614   108.57502325   119.71616016
 H      3   2   1     2.046369882674   122.92086153     0.00000000
 H     13  12   5     2.065682626657   111.91401280   180.01164346
 H     13  12   5     2.068544311872   109.05400691    59.83102398
 H     13  12   5     2.068559857913   109.05383354   300.19202394
 H     14   9   7     2.064977728153   112.65138811     0.00000000
 H     14   9   7     2.069239660305   108.95257830   239.02618335
 H     14   9   7     2.069219748953   108.95308868   120.95385830

---------------------
BASIS SET INFORMATION
---------------------
There are 4 groups of distinct atoms

 Group   1 Type C   : 7s4p1d contracted to 3s2p1d pattern {511/31/1}
 Group   2 Type N   : 7s4p1d contracted to 3s2p1d pattern {511/31/1}
 Group   3 Type O   : 7s4p1d contracted to 3s2p1d pattern {511/31/1}
 Group   4 Type H   : 4s1p contracted to 2s1p pattern {31/1}

Atom   0C    basis set group =>   1
Atom   1N    basis set group =>   2
Atom   2C    basis set group =>   1
Atom   3N    basis set group =>   2
Atom   4C    basis set group =>   1
Atom   5C    basis set group =>   1
Atom   6C    basis set group =>   1
Atom   7O    basis set group =>   3
Atom   8N    basis set group =>   2
Atom   9C    basis set group =>   1
Atom  10O    basis set group =>   3
Atom  11N    basis set group =>   2
Atom  12C    basis set group =>   1
Atom  13C    basis set group =>   1
Atom  14H    basis set group =>   4
Atom  15H    basis set group =>   4
Atom  16H    basis set group =>   4
Atom  17H    basis set group =>   4
Atom  18H    basis set group =>   4
Atom  19H    basis set group =>   4
Atom  20H    basis set group =>   4
Atom  21H    basis set group =>   4
Atom  22H    basis set group =>   4
Atom  23H    basis set group =>   4
---------------------------------
AUXILIARY/J BASIS SET INFORMATION
---------------------------------
There are 4 groups of distinct atoms

 Group   1 Type C   : 12s5p4d2f1g contracted to 6s4p3d1f1g pattern {711111/2111/211/2/1}
 Group   2 Type N   : 12s5p4d2f1g contracted to 6s4p3d1f1g pattern {711111/2111/211/2/1}
 Group   3 Type O   : 12s5p4d2f1g contracted to 6s4p3d1f1g pattern {711111/2111/211/2/1}
 Group   4 Type H   : 5s2p1d contracted to 3s1p1d pattern {311/2/1}

Atom   0C    basis set group =>   1
Atom   1N    basis set group =>   2
Atom   2C    basis set group =>   1
Atom   3N    basis set group =>   2
Atom   4C    basis set group =>   1
Atom   5C    basis set group =>   1
Atom   6C    basis set group =>   1
Atom   7O    basis set group =>   3
Atom   8N    basis set group =>   2
Atom   9C    basis set group =>   1
Atom  10O    basis set group =>   3
Atom  11N    basis set group =>   2
Atom  12C    basis set group =>   1
Atom  13C    basis set group =>   1
Atom  14H    basis set group =>   4
Atom  15H    basis set group =>   4
Atom  16H    basis set group =>   4
Atom  17H    basis set group =>   4
Atom  18H    basis set group =>   4
Atom  19H    basis set group =>   4
Atom  20H    basis set group =>   4
Atom  21H    basis set group =>   4
Atom  22H    basis set group =>   4
Atom  23H    basis set group =>   4
------------------------------------------------------------------------------
                           ORCA GTO INTEGRAL CALCULATION
                           -- RI-GTO INTEGRALS CHOSEN --
------------------------------------------------------------------------------
------------------------------------------------------------------------------
                   ___                                                        
                  /   \      - P O W E R E D   B Y -                         
                 /     \                                                     
                 |  |  |   _    _      __       _____    __    __             
                 |  |  |  | |  | |    /  \     |  _  \  |  |  /  |          
                  \  \/   | |  | |   /    \    | | | |  |  | /  /          
                 / \  \   | |__| |  /  /\  \   | |_| |  |  |/  /          
                |  |  |   |  __  | /  /__\  \  |    /   |      \           
                |  |  |   | |  | | |   __   |  |    \   |  |\   \          
                \     /   | |  | | |  |  |  |  | |\  \  |  | \   \       
                 \___/    |_|  |_| |__|  |__|  |_| \__\ |__|  \__/        
                                                                              
                      - O R C A' S   B I G   F R I E N D -                    
                                      &                                       
                       - I N T E G R A L  F E E D E R -                       
                                                                              
 v1 FN, 2020, v2 2021                                                         
------------------------------------------------------------------------------


Reading SHARK input file Caffeine_DFT.SHARKINP.tmp ... SHARK General Contraction Test:  Segmented basis detected
   -> Pre-screening matrix *NOT* found on disk - recalculating with NShells=114
   -> Leaving CheckPreScreeningMatrix
ok
----------------------
SHARK INTEGRAL PACKAGE
----------------------

Number of atoms                             ...     24
Number of basis functions                   ...    246
Number of shells                            ...    114
Maximum angular momentum                    ...      2
Integral batch strategy                     ... SHARK/LIBINT Hybrid
RI-J (if used) integral strategy            ... SPLIT-RIJ (Revised 2003 algorithm where possible)
Printlevel                                  ...      2
Contraction scheme used                     ... SEGMENTED contraction
Coulomb Range Separation                    ... NOT USED
Exchange Range Separation                   ... NOT USED
Finite Nucleus Model                        ... NOT USED
Auxiliary Coulomb fitting basis             ... AVAILABLE
   # of basis functions in Aux-J            ...    796
   # of shells in Aux-J                     ...    260
   Maximum angular momentum in Aux-J        ...      4
Auxiliary J/K fitting basis                 ... NOT available
Auxiliary Correlation fitting basis         ... NOT available
Auxiliary 'external' fitting basis          ... NOT available
Integral threshold                          ...     2.500000e-11
Primitive cut-off                           ...     2.500000e-12
Primitive pair pre-selection threshold      ...     2.500000e-12

Calculating pre-screening integrals         ... done (  0.1 sec) Dimension = 114
Organizing shell pair data                  ... done (  0.2 sec)
Shell pair information
Total number of shell pairs                 ...      6555
Shell pairs after pre-screening             ...      5644
Total number of primitive shell pairs       ...     24083
Primitive shell pairs kept                  ...     14226
          la=0 lb=0:   1693 shell pairs
          la=1 lb=0:   2046 shell pairs
          la=1 lb=1:    647 shell pairs
          la=2 lb=0:    718 shell pairs
          la=2 lb=1:    450 shell pairs
          la=2 lb=2:     90 shell pairs

Calculating one electron integrals          ... done (  0.1 sec)
Calculating RI/J V-Matrix + Cholesky decomp.... done (  0.1 sec)
Calculating Nuclear repulsion               ... done (  0.1 sec) ENN=    931.292023064190 Eh

SHARK setup successfully completed in   1.1 seconds

Maximum memory used throughout the entire GTOINT-calculation: 42.3 MB
-------------------------------------------------------------------------------
                                 ORCA SCF
-------------------------------------------------------------------------------

------------
SCF SETTINGS
------------
Hamiltonian:
 Density Functional     Method          .... DFT(GTOs)
 Exchange Functional    Exchange        .... B88
   X-Alpha parameter    XAlpha          ....  0.666667
   Becke's b parameter  XBeta           ....  0.004200
 Correlation Functional Correlation     .... LYP
 LDA part of GGA corr.  LDAOpt          .... VWN-5
 Gradients option       PostSCFGGA      .... off
 Hybrid DFT is turned on
   Fraction HF Exchange ScalHFX         ....  0.200000
   Scaling of DF-GGA-X  ScalDFX         ....  0.720000
   Scaling of DF-GGA-C  ScalDFC         ....  0.810000
   Scaling of DF-LDA-C  ScalLDAC        ....  1.000000
   Perturbative correction              ....  0.000000
   Density functional embedding theory  .... OFF
   NL short-range parameter             ....  4.800000
 RI-approximation to the Coulomb term is turned on
   Number of AuxJ basis functions       .... 796
   RIJ-COSX (HFX calculated with COS-X)).... on


General Settings:
 Integral files         IntName         .... Caffeine_DFT
 Hartree-Fock type      HFTyp           .... RHF
 Total Charge           Charge          ....    0
 Multiplicity           Mult            ....    1
 Number of Electrons    NEL             ....  102
 Basis Dimension        Dim             ....  246
 Nuclear Repulsion      ENuc            ....    931.2920230642 Eh

Convergence Acceleration:
 DIIS                   CNVDIIS         .... on
   Start iteration      DIISMaxIt       ....    12
   Startup error        DIISStart       ....  0.200000
   # of expansion vecs  DIISMaxEq       ....     5
   Bias factor          DIISBfac        ....   1.050
   Max. coefficient     DIISMaxC        ....  10.000
 Trust-Rad. Augm. Hess. CNVTRAH         .... auto
   Auto Start mean grad. ratio tolernc. ....  1.125000
   Auto Start start iteration           ....    20
   Auto Start num. interpolation iter.  ....    10
   Max. Number of Micro iterations      ....    16
   Max. Number of Macro iterations      .... Maxiter - #DIIS iter
   Number of Davidson start vectors     ....     2
   Converg. threshold I  (grad. norm)   ....   1.000e-05
   Converg. threshold II (energy diff.) ....   1.000e-08
   Grad. Scal. Fac. for Micro threshold ....   0.100
   Minimum threshold for Micro iter.    ....   0.010
   NR start threshold (gradient norm)   ....   0.001
   Initial trust radius                 ....   0.400
   Minimum AH scaling param. (alpha)    ....   1.000
   Maximum AH scaling param. (alpha)    .... 1000.000
   Orbital update algorithm             .... Taylor
   White noise on init. David. guess    .... on
   Maximum white noise                  ....   0.010
   Quad. conv. algorithm                .... NR
 SOSCF                  CNVSOSCF        .... on
   Start iteration      SOSCFMaxIt      ....   150
   Startup grad/error   SOSCFStart      ....  0.003300
 Level Shifting         CNVShift        .... on
   Level shift para.    LevelShift      ....    0.2500
   Turn off err/grad.   ShiftErr        ....    0.0010
 Zerner damping         CNVZerner       .... off
 Static damping         CNVDamp         .... on
   Fraction old density DampFac         ....    0.7000
   Max. Damping (<1)    DampMax         ....    0.9800
   Min. Damping (>=0)   DampMin         ....    0.0000
   Turn off err/grad.   DampErr         ....    0.1000
 Fernandez-Rico         CNVRico         .... off

SCF Procedure:
 Maximum # iterations   MaxIter         ....   125
 SCF integral mode      SCFMode         .... Direct
   Integral package                     .... SHARK and LIBINT hybrid scheme
 Reset frequency        DirectResetFreq ....    20
 Integral Threshold     Thresh          ....  2.500e-11 Eh
 Primitive CutOff       TCut            ....  2.500e-12 Eh

Convergence Tolerance:
 Convergence Check Mode ConvCheckMode   .... Total+1el-Energy
 Convergence forced     ConvForced      .... 0
 Energy Change          TolE            ....  1.000e-08 Eh
 1-El. energy change                    ....  1.000e-05 Eh
 Orbital Gradient       TolG            ....  1.000e-05
 Orbital Rotation angle TolX            ....  1.000e-05
 DIIS Error             TolErr          ....  5.000e-07


Diagonalization of the overlap matrix:
Smallest eigenvalue                        ... 5.891e-04
Time for diagonalization                   ...    0.009 sec
Threshold for overlap eigenvalues          ... 1.000e-08
Number of eigenvalues below threshold      ... 0
Time for construction of square roots      ...    0.007 sec
Total time needed                          ...    0.017 sec

SHARK General Contraction Test:  Segmented basis detected
   -> Pre-screening matrix found on disk - Trying to read with NShells=114
   -> Passing Pre-screening matrix on to SHARK ...ok
   -> Leaving CheckPreScreeningMatrix
----------------------
SHARK INTEGRAL PACKAGE
----------------------

Number of atoms                             ...     24
Number of basis functions                   ...    246
Number of shells                            ...    114
Maximum angular momentum                    ...      2
Integral batch strategy                     ... SHARK/LIBINT Hybrid
RI-J (if used) integral strategy            ... SPLIT-RIJ (Revised 2003 algorithm where possible)
Printlevel                                  ...      2
Contraction scheme used                     ... SEGMENTED contraction
Coulomb Range Separation                    ... NOT USED
Exchange Range Separation                   ... NOT USED
Finite Nucleus Model                        ... NOT USED
Auxiliary Coulomb fitting basis             ... AVAILABLE
   # of basis functions in Aux-J            ...    796
   # of shells in Aux-J                     ...    260
   Maximum angular momentum in Aux-J        ...      4
Auxiliary J/K fitting basis                 ... NOT available
Auxiliary Correlation fitting basis         ... NOT available
Auxiliary 'external' fitting basis          ... NOT available
Integral threshold                          ...     2.500000e-11
Primitive cut-off                           ...     2.500000e-12
Primitive pair pre-selection threshold      ...     2.500000e-12

Time for model grid setup =    1.488 sec

------------------------------
INITIAL GUESS: MODEL POTENTIAL
------------------------------
Loading Hartree-Fock densities                     ... done
Calculating cut-offs                               ... done
Initializing the effective Hamiltonian             ... done
Setting up the integral package (SHARK)            ... done
Starting the Coulomb interaction                   ...     -> Generating integrals - 
    -> L=0 0 :     0.307 sec done=    332176 skipped=      7310 prim-skipped=         0
    -> L=1 0 :     0.484 sec done=    402338 skipped=      8114 prim-skipped=         0
    -> L=1 1 :     0.126 sec done=    127192 skipped=      1878 prim-skipped=         0
    -> L=2 0 :     0.172 sec done=    141776 skipped=      2394 prim-skipped=         0
    -> L=2 1 :     0.121 sec done=     86890 skipped=      1856 prim-skipped=         0
    -> L=2 2 :     0.013 sec done=     16966 skipped=       210 prim-skipped=         0
done (   1.2 sec)
Reading the grid                                   ... done
Mapping shells                                     ... done
Starting the XC term evaluation                    ... done (   1.7 sec)
  promolecular density results
     # of electrons  =    101.991663258
     EX              =    -86.914452957
     EC              =     -3.535157819
     EX+EC           =    -90.449610777
Transforming the Hamiltonian                       ... done (   0.0 sec)
Diagonalizing the Hamiltonian                      ... done (   0.1 sec)
Back transforming the eigenvectors                 ... done (   0.0 sec)
Now organizing SCF variables                       ... done
                      ------------------
                      INITIAL GUESS DONE (   4.6 sec)
                      ------------------
-------------------
DFT GRID GENERATION
-------------------

General Integration Accuracy     IntAcc      ... 4.388
Radial Grid Type                 RadialGrid  ... OptM3 with GC (2021)
Angular Grid (max. ang.)         AngularGrid ... 4 (Lebedev-302)
Angular grid pruning method      GridPruning ... 4 (adaptive)
Weight generation scheme         WeightScheme... Becke
Basis function cutoff            BFCut       ... 1.0000e-11
Integration weight cutoff        WCut        ... 1.0000e-14
Angular grids for H and He will be reduced by one unit
Partially contracted basis set               ... off
Rotationally invariant grid construction     ... off

Total number of grid points                  ...   116089
Total number of batches                      ...     1824
Average number of points per batch           ...       63
Average number of grid points per atom       ...     4837
Time for grid setup =    4.419 sec

--------------------
COSX GRID GENERATION
--------------------

GRIDX 1
-------
General Integration Accuracy     IntAcc      ... 3.816
Radial Grid Type                 RadialGrid  ... OptM3 with GC (2021)
Angular Grid (max. ang.)         AngularGrid ... 1 (Lebedev-50)
Angular grid pruning method      GridPruning ... 4 (adaptive)
Weight generation scheme         WeightScheme... Becke
Basis function cutoff            BFCut       ... 1.0000e-11
Integration weight cutoff        WCut        ... 1.0000e-14
Angular grids for H and He will be reduced by one unit
Partially contracted basis set               ... on
Rotationally invariant grid construction     ... off

Total number of grid points                  ...    14810
Total number of batches                      ...      245
Average number of points per batch           ...       60
Average number of grid points per atom       ...      617
UseSFitting                                  ... on

GRIDX 2
-------
General Integration Accuracy     IntAcc      ... 4.020
Radial Grid Type                 RadialGrid  ... OptM3 with GC (2021)
Angular Grid (max. ang.)         AngularGrid ... 2 (Lebedev-110)
Angular grid pruning method      GridPruning ... 4 (adaptive)
Weight generation scheme         WeightScheme... Becke
Basis function cutoff            BFCut       ... 1.0000e-11
Integration weight cutoff        WCut        ... 1.0000e-14
Angular grids for H and He will be reduced by one unit
Partially contracted basis set               ... on
Rotationally invariant grid construction     ... off

Total number of grid points                  ...    32432
Total number of batches                      ...      520
Average number of points per batch           ...       62
Average number of grid points per atom       ...     1351
UseSFitting                                  ... on

GRIDX 3
-------
General Integration Accuracy     IntAcc      ... 4.338
Radial Grid Type                 RadialGrid  ... OptM3 with GC (2021)
Angular Grid (max. ang.)         AngularGrid ... 3 (Lebedev-194)
Angular grid pruning method      GridPruning ... 4 (adaptive)
Weight generation scheme         WeightScheme... Becke
Basis function cutoff            BFCut       ... 1.0000e-11
Integration weight cutoff        WCut        ... 1.0000e-14
Angular grids for H and He will be reduced by one unit
Partially contracted basis set               ... on
Rotationally invariant grid construction     ... off

Total number of grid points                  ...    71161
Total number of batches                      ...     1124
Average number of points per batch           ...       63
Average number of grid points per atom       ...     2965
UseSFitting                                  ... on

Time for X-Grid setup             =    7.991 sec


--------------------
CPCM SOLVATION MODEL
--------------------
CPCM parameters:
  Epsilon                                         ...      69.0000
  Refrac                                          ...       1.3400
  Rsolv                                           ...       1.3000
  Surface type                                    ... GAUSSIAN VDW
  Epsilon function type                           ...         CPCM
Radii:
 Radius for C  used is    3.8550 Bohr (=   2.0400 Ang.)
 Radius for N  used is    3.5149 Bohr (=   1.8600 Ang.)
 Radius for O  used is    3.4469 Bohr (=   1.8240 Ang.)
 Radius for H  used is    2.4944 Bohr (=   1.3200 Ang.)
Calculating surface                               ...        done! (  0.0s)
GEPOL surface points                              ...         1300
GEPOL Volume                                      ...    1474.1017
GEPOL Surface-area                                ...     792.7144
Calculating surface distance matrix               ...        done! (  0.1s)
Performing Cholesky decomposition & store         ...        done! (  0.4s)
Overall time for CPCM initialization              ...                 0.5s
--------------
SCF ITERATIONS
--------------
               ***  Starting incremental Fock matrix formation  ***
==>> SHARK/AuxDens: NDens=1 Thresh =     2.500000e-11 TCut=    2.500000e-12 Lmax=2 LmaxAux=4
    -> Making Hermite density - ok     0.084 sec
    -> Making Aux-basis density - (lmax=2)
    -> L=0 0:    0.306 sec done=    404164 ( 91.9%) skipped=     35852 
    -> L=1 0:    0.704 sec done=    485840 ( 91.4%) skipped=     45806 
    -> L=1 1:    0.387 sec done=    154849 ( 93.2%) skipped=     11291 
    -> L=2 0:    0.206 sec done=    168778 ( 90.5%) skipped=     17806 
    -> L=2 1:    0.212 sec done=    102804 ( 89.7%) skipped=     11856 
    -> L=2 2:    0.086 sec done=     19073 ( 86.3%) skipped=      3027 
    -> Aux basis density formed in    1.9 sec
    -> Solving linear equations - ok (   0.0 sec)
        Auxbasis Hermite Density:
        P|s>                     ...  0.000
        P|p>                     ...  0.000
        P|d>                     ...  0.000
        P|f>                     ...  0.000
        P|g>                     ...  0.000
        Building the Coulomb matrix: 
        J|ss>                          ... done (  0.3 sec) ndone=  1975245 nskipped1=    59637 nskipped2=    96262
        J|ps>                          ... done (  0.5 sec) ndone=  2121590 nskipped1=    48325 nskipped2=   110437
        J|pp>                          ... done (  0.3 sec) ndone=   623128 nskipped1=     4757 nskipped2=    17367
        J|ds>                          ... done (  0.1 sec) ndone=   472212 nskipped1=     9697 nskipped2=    29818
        J|dp>                          ... done (  0.2 sec) ndone=   266151 nskipped1=     4744 nskipped2=     8717
        J|dd>                          ... done (  0.0 sec) ndone=    33834 nskipped1=      660 nskipped2=      722
        Coulomb matrix built in   1.4 sec

        Total time for Split-RI-J                ...    3.406 sec
          (0) Prelude                            ...    0.000 sec
          (1) Hermite density                    ...    0.000 sec
          (2) Aux basis density                  ...    0.000 sec (inner=  0.0)
          (3) Linear equation solution           ...    0.000 sec
          (4) J-Matrix construction              ...    1.408 sec (inner=  1.4)
        ---------------------------------------------------------

                         ----------------------------
                         !        ITERATION     0   !
                         ----------------------------
   Total Energy        :    -679.152956291561 Eh
   Energy Change       :    -679.152956291561 Eh
   MAX-DP              :       0.116988799569
   RMS-DP              :       0.002585820750
   Actual Damping      :       0.7000
   Actual Level Shift  :       0.2500 Eh
   Int. Num. El.       :   101.99998759 (UP=   50.99999379 DN=   50.99999379)
   Exchange            :   -70.94007828
   Correlation         :    -4.18642920

==>> SHARK/AuxDens: NDens=1 Thresh =     2.500000e-11 TCut=    2.500000e-12 Lmax=2 LmaxAux=4
    -> Making Hermite density - ok     0.012 sec
    -> Making Aux-basis density - (lmax=2)
    -> L=0 0:    0.303 sec done=    386478 ( 87.8%) skipped=     53538 
    -> L=1 0:    0.598 sec done=    464561 ( 87.4%) skipped=     67085 
    -> L=1 1:    0.308 sec done=    147706 ( 88.9%) skipped=     18434 
    -> L=2 0:    0.285 sec done=    160711 ( 86.1%) skipped=     25873 
    -> L=2 1:    0.211 sec done=     99904 ( 87.1%) skipped=     14756 
    -> L=2 2:    0.085 sec done=     17868 ( 80.9%) skipped=      4232 
    -> Aux basis density formed in    1.8 sec
    -> Solving linear equations - ok (   0.0 sec)
        Auxbasis Hermite Density:
        P|s>                     ...  0.000
        P|p>                     ...  0.000
        P|d>                     ...  0.000
        P|f>                     ...  0.000
        P|g>                     ...  0.000
        Building the Coulomb matrix: 
        J|ss>                          ... done (  0.3 sec) ndone=  1914903 nskipped1=   110771 nskipped2=    59436
        J|ps>                          ... done (  0.5 sec) ndone=  2079193 nskipped1=    90251 nskipped2=    70754
        J|pp>                          ... done (  0.3 sec) ndone=   615820 nskipped1=    10345 nskipped2=    14621
        J|ds>                          ... done (  0.1 sec) ndone=   459786 nskipped1=    21139 nskipped2=    21102
        J|dp>                          ... done (  0.2 sec) ndone=   259797 nskipped1=     9387 nskipped2=     6132
        J|dd>                          ... done (  0.0 sec) ndone=    32601 nskipped1=     1606 nskipped2=      223
        Coulomb matrix built in   1.4 sec

        Total time for Split-RI-J                ...    3.222 sec
          (0) Prelude                            ...    0.000 sec
          (1) Hermite density                    ...    0.000 sec
          (2) Aux basis density                  ...    0.000 sec (inner=  0.0)
          (3) Linear equation solution           ...    0.000 sec
          (4) J-Matrix construction              ...    1.410 sec (inner=  1.4)
        ---------------------------------------------------------

                         ----------------------------
                         !        ITERATION     1   !
                         ----------------------------
   Total Energy        :    -679.328002786255 Eh
   Energy Change       :      -0.175046494694 Eh
   MAX-DP              :       0.071556826503
   RMS-DP              :       0.001580588083
   Actual Damping      :       0.7000
   Actual Level Shift  :       0.2500 Eh
   Int. Num. El.       :   101.99998580 (UP=   50.99999290 DN=   50.99999290)
   Exchange            :   -70.44333509
   Correlation         :    -4.17180918

==>> SHARK/AuxDens: NDens=1 Thresh =     2.500000e-11 TCut=    2.500000e-12 Lmax=2 LmaxAux=4
    -> Making Hermite density - ok     0.094 sec
    -> Making Aux-basis density - (lmax=2)
    -> L=0 0:    0.393 sec done=    382198 ( 86.9%) skipped=     57818 
    -> L=1 0:    0.722 sec done=    461068 ( 86.7%) skipped=     70578 
    -> L=1 1:    0.390 sec done=    146677 ( 88.3%) skipped=     19463 
    -> L=2 0:    0.291 sec done=    157487 ( 84.4%) skipped=     29097 
    -> L=2 1:    0.210 sec done=     99088 ( 86.4%) skipped=     15572 
    -> L=2 2:    0.084 sec done=     17388 ( 78.7%) skipped=      4712 
    -> Aux basis density formed in    2.1 sec
    -> Solving linear equations - ok (   0.0 sec)
        Auxbasis Hermite Density:
        P|s>                     ...  0.000
        P|p>                     ...  0.000
        P|d>                     ...  0.000
        P|f>                     ...  0.000
        P|g>                     ...  0.000
        Building the Coulomb matrix: 
        J|ss>                          ... done (  0.3 sec) ndone=  1894164 nskipped1=   125021 nskipped2=    52533
        J|ps>                          ... done (  0.6 sec) ndone=  2066673 nskipped1=    99697 nskipped2=    65339
        J|pp>                          ... done (  0.2 sec) ndone=   613347 nskipped1=    11977 nskipped2=    13862
        J|ds>                          ... done (  0.2 sec) ndone=   456269 nskipped1=    23704 nskipped2=    19738
        J|dp>                          ... done (  0.1 sec) ndone=   258123 nskipped1=    10432 nskipped2=     5899
        J|dd>                          ... done (  0.1 sec) ndone=    32188 nskipped1=     1844 nskipped2=      151
        Coulomb matrix built in   1.5 sec

        Total time for Split-RI-J                ...    3.690 sec
          (0) Prelude                            ...    0.000 sec
          (1) Hermite density                    ...    0.000 sec
          (2) Aux basis density                  ...    0.000 sec (inner=  0.0)
          (3) Linear equation solution           ...    0.000 sec
          (4) J-Matrix construction              ...    1.494 sec (inner=  1.5)
        ---------------------------------------------------------
                               ***Turning on DIIS***

                         ----------------------------
                         !        ITERATION     2   !
                         ----------------------------
   Total Energy        :    -679.388715467411 Eh
   Energy Change       :      -0.060712681156 Eh
   MAX-DP              :       0.072536139525
   RMS-DP              :       0.002161891394
   Actual Damping      :       0.0000
   Actual Level Shift  :       0.2500 Eh
   Int. Num. El.       :   101.99998533 (UP=   50.99999266 DN=   50.99999266)
   Exchange            :   -70.14168307
   Correlation         :    -4.16212559
   DIIS-Error          :       0.038926822611

==>> SHARK/AuxDens: NDens=1 Thresh =     2.500000e-11 TCut=    2.500000e-12 Lmax=2 LmaxAux=4
    -> Making Hermite density - ok     0.089 sec
    -> Making Aux-basis density - (lmax=2)
    -> L=0 0:    0.503 sec done=    384864 ( 87.5%) skipped=     55152 
    -> L=1 0:    0.804 sec done=    465054 ( 87.5%) skipped=     66592 
    -> L=1 1:    0.398 sec done=    147778 ( 88.9%) skipped=     18362 
    -> L=2 0:    0.305 sec done=    158985 ( 85.2%) skipped=     27599 
    -> L=2 1:    0.392 sec done=     99807 ( 87.0%) skipped=     14853 
    -> L=2 2:    0.095 sec done=     17624 ( 79.7%) skipped=      4476 
    -> Aux basis density formed in    2.5 sec
    -> Solving linear equations - ok (   0.0 sec)
        Auxbasis Hermite Density:
        P|s>                     ... -0.000
        P|p>                     ... -0.000
        P|d>                     ... -0.000
        P|f>                     ... -0.000
        P|g>                     ... -0.000
        Building the Coulomb matrix: 
        J|ss>                          ... done (  0.5 sec) ndone=  1911441 nskipped1=   110569 nskipped2=    55653
        J|ps>                          ... done (  0.9 sec) ndone=  2077861 nskipped1=    89766 nskipped2=    68111
        J|pp>                          ... done (  0.3 sec) ndone=   615413 nskipped1=    10293 nskipped2=    14170
        J|ds>                          ... done (  0.4 sec) ndone=   459321 nskipped1=    21020 nskipped2=    20531
        J|dp>                          ... done (  0.2 sec) ndone=   259502 nskipped1=     9376 nskipped2=     6003
        J|dd>                          ... done (  0.1 sec) ndone=    32511 nskipped1=     1603 nskipped2=      169
        Coulomb matrix built in   2.4 sec

        Total time for Split-RI-J                ...    4.987 sec
          (0) Prelude                            ...    0.000 sec
          (1) Hermite density                    ...    0.000 sec
          (2) Aux basis density                  ...    0.000 sec (inner=  0.0)
          (3) Linear equation solution           ...    0.000 sec
          (4) J-Matrix construction              ...    2.391 sec (inner=  2.4)
        ---------------------------------------------------------

                         ----------------------------
                         !        ITERATION     3   !
                         ----------------------------
   Total Energy        :    -679.499817880536 Eh
   Energy Change       :      -0.111102413125 Eh
   MAX-DP              :       0.053677400455
   RMS-DP              :       0.001077496687
   Actual Damping      :       0.0000
   Actual Level Shift  :       0.2500 Eh
   Int. Num. El.       :   101.99998794 (UP=   50.99999397 DN=   50.99999397)
   Exchange            :   -69.72696442
   Correlation         :    -4.14720175
   DIIS-Error          :       0.050051406195
   DIIS coefficients:
      0.56203   0.43797

==>> SHARK/AuxDens: NDens=1 Thresh =     2.500000e-11 TCut=    2.500000e-12 Lmax=2 LmaxAux=4
    -> Making Hermite density - ok     0.084 sec
    -> Making Aux-basis density - (lmax=2)
    -> L=0 0:    0.510 sec done=    380155 ( 86.4%) skipped=     59861 
    -> L=1 0:    0.788 sec done=    457393 ( 86.0%) skipped=     74253 
    -> L=1 1:    0.397 sec done=    146406 ( 88.1%) skipped=     19734 
    -> L=2 0:    0.306 sec done=    155912 ( 83.6%) skipped=     30672 
    -> L=2 1:    0.396 sec done=     98537 ( 85.9%) skipped=     16123 
    -> L=2 2:    0.014 sec done=     17041 ( 77.1%) skipped=      5059 
    -> Aux basis density formed in    2.4 sec
    -> Solving linear equations - ok (   0.0 sec)
        Auxbasis Hermite Density:
        P|s>                     ... -0.000
        P|p>                     ... -0.000
        P|d>                     ... -0.000
        P|f>                     ... -0.000
        P|g>                     ... -0.000
        Building the Coulomb matrix: 
        J|ss>                          ... done (  0.4 sec) ndone=  1885350 nskipped1=   134768 nskipped2=    52520
        J|ps>                          ... done (  0.6 sec) ndone=  2061150 nskipped1=   106458 nskipped2=    65088
        J|pp>                          ... done (  0.2 sec) ndone=   612366 nskipped1=    13134 nskipped2=    13828
        J|ds>                          ... done (  0.3 sec) ndone=   454702 nskipped1=    25707 nskipped2=    19643
        J|dp>                          ... done (  0.1 sec) ndone=   257384 nskipped1=    11203 nskipped2=     5898
        J|dd>                          ... done (  0.0 sec) ndone=    32066 nskipped1=     2020 nskipped2=      163
        Coulomb matrix built in   1.6 sec

        Total time for Split-RI-J                ...    4.206 sec
          (0) Prelude                            ...    0.000 sec
          (1) Hermite density                    ...    0.000 sec
          (2) Aux basis density                  ...    0.000 sec (inner=  0.0)
          (3) Linear equation solution           ...    0.000 sec
          (4) J-Matrix construction              ...    1.618 sec (inner=  1.6)
        ---------------------------------------------------------

                         ----------------------------
                         !        ITERATION     4   !
                         ----------------------------
   Total Energy        :    -679.516344301997 Eh
   Energy Change       :      -0.016526421462 Eh
   MAX-DP              :       0.010145218713
   RMS-DP              :       0.000294667888
   Actual Damping      :       0.0000
   Actual Level Shift  :       0.2500 Eh
   Int. Num. El.       :   101.99998932 (UP=   50.99999466 DN=   50.99999466)
   Exchange            :   -69.91024635
   Correlation         :    -4.15332467
   DIIS-Error          :       0.016650658106
   DIIS coefficients:
      0.28225   0.14665   0.57110

==>> SHARK/AuxDens: NDens=1 Thresh =     2.500000e-11 TCut=    2.500000e-12 Lmax=2 LmaxAux=4
    -> Making Hermite density - ok     0.094 sec
    -> Making Aux-basis density - (lmax=2)
    -> L=0 0:    0.301 sec done=    368439 ( 83.7%) skipped=     71577 
    -> L=1 0:    1.193 sec done=    450110 ( 84.7%) skipped=     81536 
    -> L=1 1:    0.415 sec done=    144533 ( 87.0%) skipped=     21607 
    -> L=2 0:    0.207 sec done=    150450 ( 80.6%) skipped=     36134 
    -> L=2 1:    0.296 sec done=     96787 ( 84.4%) skipped=     17873 
    -> L=2 2:    0.086 sec done=     16601 ( 75.1%) skipped=      5499 
    -> Aux basis density formed in    2.5 sec
    -> Solving linear equations - ok (   0.0 sec)
        Auxbasis Hermite Density:
        P|s>                     ...  0.000
        P|p>                     ...  0.000
        P|d>                     ...  0.000
        P|f>                     ...  0.000
        P|g>                     ...  0.000
        Building the Coulomb matrix: 
        J|ss>                          ... done (  0.3 sec) ndone=  1852507 nskipped1=   158718 nskipped2=    44750
        J|ps>                          ... done (  0.5 sec) ndone=  2040684 nskipped1=   122777 nskipped2=    58574
        J|pp>                          ... done (  0.2 sec) ndone=   608407 nskipped1=    16010 nskipped2=    12679
        J|ds>                          ... done (  0.2 sec) ndone=   448966 nskipped1=    30299 nskipped2=    17754
        J|dp>                          ... done (  0.2 sec) ndone=   254688 nskipped1=    12964 nskipped2=     5601
        J|dd>                          ... done (  0.0 sec) ndone=    31505 nskipped1=     2407 nskipped2=      114
        Coulomb matrix built in   1.4 sec

        Total time for Split-RI-J                ...    4.094 sec
          (0) Prelude                            ...    0.000 sec
          (1) Hermite density                    ...    0.000 sec
          (2) Aux basis density                  ...    0.000 sec (inner=  0.0)
          (3) Linear equation solution           ...    0.000 sec
          (4) J-Matrix construction              ...    1.409 sec (inner=  1.4)
        ---------------------------------------------------------
                      *** Initiating the SOSCF procedure ***
                           *** Shutting down DIIS ***
                      *** Re-Reading the Fockian *** 
                      *** Removing any level shift *** 

                         ----------------------------
                         !        ITERATION     5   !
                         ----------------------------
   Total Energy        :    -679.518278970289 Eh
   Energy Change       :      -0.001934668292 Eh
   MAX-DP              :       0.003035283990
   RMS-DP              :       0.000084469508
   Orbital gradient    :       0.000512566185
   Orbital Rotation    :       0.000512566185
   Actual Damping      :       0.0000
   Int. Num. El.       :   101.99998875 (UP=   50.99999438 DN=   50.99999438)
   Exchange            :   -69.92953429
   Correlation         :    -4.15452166

               *** Restarting incremental Fock matrix formation ***
==>> SHARK/AuxDens: NDens=1 Thresh =     2.500000e-11 TCut=    2.500000e-12 Lmax=2 LmaxAux=4
    -> Making Hermite density - ok     0.089 sec
    -> Making Aux-basis density - (lmax=2)
    -> L=0 0:    0.397 sec done=    405219 ( 92.1%) skipped=     34797 
    -> L=1 0:    0.899 sec done=    487449 ( 91.7%) skipped=     44197 
    -> L=1 1:    0.411 sec done=    154907 ( 93.2%) skipped=     11233 
    -> L=2 0:    0.389 sec done=    169054 ( 90.6%) skipped=     17530 
    -> L=2 1:    0.312 sec done=    102739 ( 89.6%) skipped=     11921 
    -> L=2 2:    0.096 sec done=     18995 ( 86.0%) skipped=      3105 
    -> Aux basis density formed in    2.5 sec
    -> Solving linear equations - ok (   0.0 sec)
        Auxbasis Hermite Density:
        P|s>                     ... -0.000
        P|p>                     ... -0.000
        P|d>                     ... -0.000
        P|f>                     ... -0.000
        P|g>                     ... -0.000
        Building the Coulomb matrix: 
        J|ss>                          ... done (  0.3 sec) ndone=  1973684 nskipped1=    61062 nskipped2=    95942
        J|ps>                          ... done (  0.5 sec) ndone=  2120511 nskipped1=    49470 nskipped2=   109965
        J|pp>                          ... done (  0.2 sec) ndone=   622919 nskipped1=     4907 nskipped2=    17362
        J|ds>                          ... done (  0.2 sec) ndone=   471848 nskipped1=    10065 nskipped2=    29680
        J|dp>                          ... done (  0.1 sec) ndone=   265917 nskipped1=     4923 nskipped2=     8717
        J|dd>                          ... done (  0.1 sec) ndone=    33795 nskipped1=      692 nskipped2=      722
        Coulomb matrix built in   1.4 sec

        Total time for Split-RI-J                ...    4.085 sec
          (0) Prelude                            ...    0.000 sec
          (1) Hermite density                    ...    0.000 sec
          (2) Aux basis density                  ...    0.000 sec (inner=  0.0)
          (3) Linear equation solution           ...    0.000 sec
          (4) J-Matrix construction              ...    1.402 sec (inner=  1.4)
        ---------------------------------------------------------

                         ----------------------------
                         !        ITERATION     6   !
                         ----------------------------
   Total Energy        :    -679.518351942395 Eh
   Energy Change       :      -0.000072972106 Eh
   MAX-DP              :       0.004100049136
   RMS-DP              :       0.000075709043
   Orbital gradient    :       0.000533687406
   Orbital Rotation    :       0.001927219735
   Actual Damping      :       0.0000
   Int. Num. El.       :   101.99998875 (UP=   50.99999438 DN=   50.99999438)
   Exchange            :   -69.93916964
   Correlation         :    -4.15486038

==>> SHARK/AuxDens: NDens=1 Thresh =     2.500000e-11 TCut=    2.500000e-12 Lmax=2 LmaxAux=4
    -> Making Hermite density - ok     0.094 sec
    -> Making Aux-basis density - (lmax=2)
    -> L=0 0:    0.222 sec done=    350377 ( 79.6%) skipped=     89639 
    -> L=1 0:    1.106 sec done=    434437 ( 81.7%) skipped=     97209 
    -> L=1 1:    0.691 sec done=    142629 ( 85.8%) skipped=     23511 
    -> L=2 0:    0.396 sec done=    140373 ( 75.2%) skipped=     46211 
    -> L=2 1:    0.493 sec done=     90746 ( 79.1%) skipped=     23914 
    -> L=2 2:    0.102 sec done=     15702 ( 71.0%) skipped=      6398 
    -> Aux basis density formed in    3.0 sec
    -> Solving linear equations - ok (   0.1 sec)
        Auxbasis Hermite Density:
        P|s>                     ... -0.000
        P|p>                     ... -0.000
        P|d>                     ... -0.000
        P|f>                     ... -0.000
        P|g>                     ... -0.000
        Building the Coulomb matrix: 
        J|ss>                          ... done (  0.5 sec) ndone=  1748237 nskipped1=   227042 nskipped2=    28291
        J|ps>                          ... done (  0.9 sec) ndone=  1958589 nskipped1=   178032 nskipped2=    42606
        J|pp>                          ... done (  0.6 sec) ndone=   595478 nskipped1=    24485 nskipped2=    10838
        J|ds>                          ... done (  0.3 sec) ndone=   422464 nskipped1=    47858 nskipped2=    12688
        J|dp>                          ... done (  0.4 sec) ndone=   247510 nskipped1=    17670 nskipped2=     4490
        J|dd>                          ... done (  0.0 sec) ndone=    29039 nskipped1=     3843 nskipped2=       33
        Coulomb matrix built in   2.7 sec

        Total time for Split-RI-J                ...    5.920 sec
          (0) Prelude                            ...    0.000 sec
          (1) Hermite density                    ...    0.000 sec
          (2) Aux basis density                  ...    0.000 sec (inner=  0.0)
          (3) Linear equation solution           ...    0.000 sec
          (4) J-Matrix construction              ...    2.719 sec (inner=  2.7)
        ---------------------------------------------------------

                         ----------------------------
                         !        ITERATION     7   !
                         ----------------------------
   Total Energy        :    -679.518317132992 Eh
   Energy Change       :       0.000034809403 Eh
   MAX-DP              :       0.002595280078
   RMS-DP              :       0.000048004575
   Orbital gradient    :       0.001120870419
   Orbital Rotation    :       0.001546368473
   Actual Damping      :       0.0000
   Int. Num. El.       :   101.99998854 (UP=   50.99999427 DN=   50.99999427)
   Exchange            :   -69.94016613
   Correlation         :    -4.15493378

==>> SHARK/AuxDens: NDens=1 Thresh =     2.500000e-11 TCut=    2.500000e-12 Lmax=2 LmaxAux=4
    -> Making Hermite density - ok     0.089 sec
    -> Making Aux-basis density - (lmax=2)
    -> L=0 0:    0.304 sec done=    341210 ( 77.5%) skipped=     98806 
    -> L=1 0:    0.791 sec done=    424392 ( 79.8%) skipped=    107254 
    -> L=1 1:    0.405 sec done=    140871 ( 84.8%) skipped=     25269 
    -> L=2 0:    0.204 sec done=    136821 ( 73.3%) skipped=     49763 
    -> L=2 1:    0.202 sec done=     88721 ( 77.4%) skipped=     25939 
    -> L=2 2:    0.012 sec done=     15628 ( 70.7%) skipped=      6472 
    -> Aux basis density formed in    1.9 sec
    -> Solving linear equations - ok (   0.1 sec)
        Auxbasis Hermite Density:
        P|s>                     ... -0.000
        P|p>                     ... -0.000
        P|d>                     ... -0.000
        P|f>                     ... -0.000
        P|g>                     ... -0.000
        Building the Coulomb matrix: 
        J|ss>                          ... done (  0.2 sec) ndone=  1702666 nskipped1=   261531 nskipped2=    22777
        J|ps>                          ... done (  0.5 sec) ndone=  1918857 nskipped1=   208019 nskipped2=    37130
        J|pp>                          ... done (  0.2 sec) ndone=   588865 nskipped1=    29422 nskipped2=    10083
        J|ds>                          ... done (  0.1 sec) ndone=   409818 nskipped1=    57644 nskipped2=    11193
        J|dp>                          ... done (  0.2 sec) ndone=   244543 nskipped1=    19943 nskipped2=     4184
        J|dd>                          ... done (  0.0 sec) ndone=    28199 nskipped1=     4400 nskipped2=       18
        Coulomb matrix built in   1.2 sec

        Total time for Split-RI-J                ...    3.309 sec
          (0) Prelude                            ...    0.000 sec
          (1) Hermite density                    ...    0.000 sec
          (2) Aux basis density                  ...    0.000 sec (inner=  0.0)
          (3) Linear equation solution           ...    0.000 sec
          (4) J-Matrix construction              ...    1.221 sec (inner=  1.2)
        ---------------------------------------------------------

                         ----------------------------
                         !        ITERATION     8   !
                         ----------------------------
   Total Energy        :    -679.518368154376 Eh
   Energy Change       :      -0.000051021384 Eh
   MAX-DP              :       0.000748471585
   RMS-DP              :       0.000015673977
   Orbital gradient    :       0.000150936167
   Orbital Rotation    :       0.000388018574
   Actual Damping      :       0.0000
   Int. Num. El.       :   101.99998865 (UP=   50.99999433 DN=   50.99999433)
   Exchange            :   -69.94083028
   Correlation         :    -4.15492355

==>> SHARK/AuxDens: NDens=1 Thresh =     2.500000e-11 TCut=    2.500000e-12 Lmax=2 LmaxAux=4
    -> Making Hermite density - ok     0.094 sec
    -> Making Aux-basis density - (lmax=2)
    -> L=0 0:    0.299 sec done=    325885 ( 74.1%) skipped=    114131 
    -> L=1 0:    0.600 sec done=    409421 ( 77.0%) skipped=    122225 
    -> L=1 1:    0.314 sec done=    137020 ( 82.5%) skipped=     29120 
    -> L=2 0:    0.292 sec done=    129896 ( 69.6%) skipped=     56688 
    -> L=2 1:    0.315 sec done=     84413 ( 73.6%) skipped=     30247 
    -> L=2 2:    0.089 sec done=     15594 ( 70.6%) skipped=      6506 
    -> Aux basis density formed in    1.9 sec
    -> Solving linear equations - ok (   0.0 sec)
        Auxbasis Hermite Density:
        P|s>                     ... -0.000
        P|p>                     ... -0.000
        P|d>                     ... -0.000
        P|f>                     ... -0.000
        P|g>                     ... -0.000
        Building the Coulomb matrix: 
        J|ss>                          ... done (  0.5 sec) ndone=  1660808 nskipped1=   294214 nskipped2=    20204
        J|ps>                          ... done (  0.5 sec) ndone=  1882507 nskipped1=   236303 nskipped2=    35581
        J|pp>                          ... done (  0.4 sec) ndone=   581925 nskipped1=    34624 nskipped2=    10064
        J|ds>                          ... done (  0.2 sec) ndone=   397475 nskipped1=    67274 nskipped2=    10401
        J|dp>                          ... done (  0.2 sec) ndone=   241669 nskipped1=    22230 nskipped2=     4037
        J|dd>                          ... done (  0.1 sec) ndone=    27498 nskipped1=     4889 nskipped2=        1
        Coulomb matrix built in   1.9 sec

        Total time for Split-RI-J                ...    3.992 sec
          (0) Prelude                            ...    0.000 sec
          (1) Hermite density                    ...    0.000 sec
          (2) Aux basis density                  ...    0.000 sec (inner=  0.0)
          (3) Linear equation solution           ...    0.000 sec
          (4) J-Matrix construction              ...    1.891 sec (inner=  1.9)
        ---------------------------------------------------------

                         ----------------------------
                         !        ITERATION     9   !
                         ----------------------------
   Total Energy        :    -679.518367009025 Eh
   Energy Change       :       0.000001145351 Eh
   MAX-DP              :       0.000422495859
   RMS-DP              :       0.000009168838
   Orbital gradient    :       0.000211690471
   Orbital Rotation    :       0.000245750385
   Actual Damping      :       0.0000
   Int. Num. El.       :   101.99998866 (UP=   50.99999433 DN=   50.99999433)
   Exchange            :   -69.93909066
   Correlation         :    -4.15487782

==>> SHARK/AuxDens: NDens=1 Thresh =     2.500000e-11 TCut=    2.500000e-12 Lmax=2 LmaxAux=4
    -> Making Hermite density - ok     0.011 sec
    -> Making Aux-basis density - (lmax=2)
    -> L=0 0:    0.288 sec done=    318682 ( 72.4%) skipped=    121334 
    -> L=1 0:    0.495 sec done=    401845 ( 75.6%) skipped=    129801 
    -> L=1 1:    0.219 sec done=    134479 ( 80.9%) skipped=     31661 
    -> L=2 0:    0.288 sec done=    126005 ( 67.5%) skipped=     60579 
    -> L=2 1:    0.294 sec done=     82707 ( 72.1%) skipped=     31953 
    -> L=2 2:    0.096 sec done=     15495 ( 70.1%) skipped=      6605 
    -> Aux basis density formed in    1.7 sec
    -> Solving linear equations - ok (   0.0 sec)
        Auxbasis Hermite Density:
        P|s>                     ... -0.000
        P|p>                     ... -0.000
        P|d>                     ... -0.000
        P|f>                     ... -0.000
        P|g>                     ... -0.000
        Building the Coulomb matrix: 
        J|ss>                          ... done (  0.3 sec) ndone=  1622537 nskipped1=   318711 nskipped2=    17220
        J|ps>                          ... done (  0.4 sec) ndone=  1847801 nskipped1=   258626 nskipped2=    32412
        J|pp>                          ... done (  0.3 sec) ndone=   575887 nskipped1=    38682 nskipped2=     9364
        J|ds>                          ... done (  0.2 sec) ndone=   385780 nskipped1=    74842 nskipped2=     9523
        J|dp>                          ... done (  0.2 sec) ndone=   238737 nskipped1=    24147 nskipped2=     3718
        J|dd>                          ... done (  0.0 sec) ndone=    26966 nskipped1=     5231 nskipped2=        0
        Coulomb matrix built in   1.4 sec

        Total time for Split-RI-J                ...    3.104 sec
          (0) Prelude                            ...    0.000 sec
          (1) Hermite density                    ...    0.000 sec
          (2) Aux basis density                  ...    0.000 sec (inner=  0.0)
          (3) Linear equation solution           ...    0.000 sec
          (4) J-Matrix construction              ...    1.401 sec (inner=  1.4)
        ---------------------------------------------------------

                         ----------------------------
                         !        ITERATION    10   !
                         ----------------------------
   Total Energy        :    -679.518368949912 Eh
   Energy Change       :      -0.000001940887 Eh
   MAX-DP              :       0.000063267970
   RMS-DP              :       0.000001408290
   Orbital gradient    :       0.000009916450
   Orbital Rotation    :       0.000039634812
   Actual Damping      :       0.0000
   Int. Num. El.       :   101.99998865 (UP=   50.99999433 DN=   50.99999433)
[...]
 8 N  dyz             0.0       0.0       3.5       0.0       0.0       0.0
 8 N  dx2y2           5.9       0.0       0.0       0.0      20.6       0.5
 8 N  dxy             4.1       0.0       0.0       0.1       0.4       7.8
 9 C  s               0.0       0.0       0.0       0.5       1.5       0.0
 9 C  pz              0.0       0.4       0.3       0.0       0.0       0.0
 9 C  px              0.1       0.0       0.0       0.0       0.4       0.2
 9 C  py              1.0       0.0       0.0       0.2       0.1       0.1
 9 C  dz2             0.0       0.0       0.0       0.1       0.8       0.0
 9 C  dxz             0.0       5.4       5.2       0.0       0.0       0.0
 9 C  dyz             0.0       3.9       4.2       0.0       0.0       0.0
 9 C  dx2y2           0.0       0.0       0.0       0.6       0.4       0.2
 9 C  dxy             0.8       0.0       0.0       1.3       2.1       2.0
10 O  s               0.1       0.0       0.0       0.1       0.1       0.4
10 O  pz              0.0       0.6       0.5       0.0       0.0       0.0
10 O  px              0.1       0.0       0.0       0.0       0.0       0.1
10 O  py              0.0       0.0       0.0       0.2       0.0       0.1
10 O  dz2             0.0       0.0       0.0       0.3       0.7       1.0
10 O  dxz             0.0      22.0      19.0       0.0       0.0       0.0
10 O  dyz             0.0      16.2      13.8       0.0       0.0       0.0
10 O  dx2y2           1.4       0.0       0.0       4.1       0.1       0.0
10 O  dxy             0.0       0.0       0.0       0.7       0.5       0.6
11 N  s               0.0       0.0       0.0       0.1       0.1       0.3
11 N  px              0.2       0.0       0.0       0.1       0.7       0.5
11 N  py              0.1       0.0       0.0       0.1       0.3       0.1
11 N  dz2             0.2       0.0       0.0       0.2       0.1       0.5
11 N  dxz             0.0       0.8       1.3       0.0       0.0       0.0
11 N  dyz             0.0       0.6       0.5       0.0       0.0       0.0
11 N  dx2y2          11.5       0.0       0.0      10.4       0.2       0.0
11 N  dxy             0.6       0.0       0.0       0.0       1.2      10.7
12 C  px              0.4       0.0       0.0       0.2       0.1       0.2
12 C  py              0.3       0.0       0.0       0.0       0.2       0.0
12 C  dz2             0.4       0.0       0.0       0.1       0.1       0.0
12 C  dxz             0.0       0.3       0.4       0.0       0.0       0.0
12 C  dx2y2           0.3       0.0       0.0       0.0       0.0       1.5
12 C  dxy             6.8       0.0       0.0       1.9       0.3       0.0
13 C  px              0.4       0.0       0.0       0.0       0.1       0.0
13 C  py              0.3       0.0       0.0       0.0       0.6       0.0
13 C  dz2             0.0       0.0       0.0       0.1       0.0       0.0
13 C  dxz             0.0       0.2       0.0       0.0       0.0       0.0
13 C  dyz             0.0       0.0       1.3       0.0       0.0       0.0
13 C  dx2y2           4.0       0.0       0.0       0.0       2.7       0.6
13 C  dxy             0.6       0.0       0.0       0.0       0.5       0.9
14 H  s               0.6       0.0       0.0       0.0       0.1       0.1
14 H  px              0.2       0.0       0.0       0.7       0.0       0.1
14 H  py              1.0       0.0       0.0       0.0       0.1       0.2
15 H  s               0.2       0.0       0.0       0.1       0.0       0.0
15 H  pz              0.1       0.0       0.0       0.2       0.0       0.0
16 H  s               0.2       0.0       0.0       0.1       0.0       0.0
16 H  pz              0.1       0.0       0.0       0.2       0.0       0.0
16 H  py              0.1       0.0       0.0       0.0       0.0       0.0
17 H  s               0.1       0.0       0.0       0.1       0.1       0.4
17 H  px              0.4       0.0       0.0       0.9       0.2       0.1
17 H  py              0.1       0.0       0.0       0.0       0.4       0.6
18 H  s               1.1       0.0       0.0       0.2       0.2       0.0
18 H  px              0.4       0.0       0.0       0.0       0.3       0.1
18 H  py              1.5       0.0       0.0       0.3       0.0       0.0
19 H  s               0.1       0.0       0.0       0.0       0.0       0.0
19 H  pz              0.2       0.0       0.0       0.0       0.0       0.1
20 H  s               0.1       0.0       0.0       0.0       0.0       0.0
20 H  pz              0.2       0.0       0.0       0.0       0.0       0.1
21 H  s               0.8       0.0       0.0       0.0       0.3       0.1
21 H  px              1.3       0.0       0.0       0.0       0.3       0.1
21 H  py              0.1       0.0       0.0       0.0       0.2       0.0
22 H  pz              0.0       0.0       0.1       0.0       0.1       0.0
23 H  pz              0.0       0.0       0.1       0.0       0.1       0.0

                    240       241       242       243       244       245   
                   3.32920   3.45797   3.49399   3.61667   3.63107   3.73267
                   0.00000   0.00000   0.00000   0.00000   0.00000   0.00000
                  --------  --------  --------  --------  --------  --------
 0 C  px              0.3       0.3       0.2       0.0       0.1       0.0
 0 C  dz2             0.3       0.2       0.1       0.0       0.0       0.0
 0 C  dx2y2           1.0       1.2       0.6       0.1       0.2       0.0
 0 C  dxy             0.5       0.3       0.3       0.0       0.2       0.1
 1 N  s               0.1       0.3       0.0       0.0       0.1       0.1
 1 N  py              0.2       0.4       0.2       0.0       0.1       0.3
 1 N  dz2             0.5       0.9       0.0       0.0       0.2       0.1
 1 N  dx2y2           7.8       7.0       7.1       0.5       1.4       0.3
 1 N  dxy             0.3       3.7       1.7       0.0       1.6       2.0
 2 C  s               0.5       0.1       0.0       0.0       0.0       0.0
 2 C  px              0.2       0.0       0.6       0.0       0.0       0.1
 2 C  py              0.4       0.4       0.0       0.0       0.1       0.0
 2 C  dz2             0.3       0.0       0.0       0.0       0.0       0.0
 2 C  dx2y2          11.4       2.7       4.8       0.0       0.1       0.2
 2 C  dxy             5.4       3.7       0.0       0.0       0.1       0.3
 3 N  s               0.1       0.0       0.1       0.0       0.0       0.1
 3 N  px              0.1       0.1       0.3       0.0       0.0       0.1
 3 N  py              0.2       0.0       1.4       0.0       0.0       0.3
 3 N  dz2             0.0       0.0       0.2       0.0       0.0       0.0
 3 N  dx2y2           0.7       1.1       7.4       0.0       0.0       1.7
 3 N  dxy            15.9       3.1       1.8       0.6       0.3       0.0
 4 C  s               0.1       0.3       0.0       0.1       0.0       0.0
 4 C  px              0.1       0.0       0.0       0.2       0.3       0.1
 4 C  py              0.0       0.4       0.7       0.0       0.0       0.2
 4 C  dx2y2           0.0       0.0      10.3       0.0       0.0       5.0
 4 C  dxy             5.3       0.6       0.0       1.9       1.8       0.1
 5 C  s               0.0       0.5       0.1       0.0       0.2       0.0
 5 C  px              0.3       0.0       0.7       0.1       0.1       0.2
 5 C  py              0.2       0.0       0.1       0.2       0.2       0.1
 5 C  dz2             0.0       0.2       0.1       0.0       0.2       0.0
 5 C  dx2y2           0.5       4.6       0.4       1.2       4.3       0.3
 5 C  dxy             0.1       0.4       5.6       0.4       0.2       5.7
 6 C  s               0.4       0.1       2.2       1.8       1.1       1.3
 6 C  px              0.0       0.6       0.6       1.2       1.1       1.9
 6 C  py              0.3       0.4       0.1       0.8       0.1       0.2
 6 C  dz2             0.1       0.0       0.4       0.3       0.2       0.3
 6 C  dx2y2           3.3       4.5       0.4       5.7       2.1       2.7
 6 C  dxy             0.2       4.3       0.1       0.2       6.6       6.1
 7 O  s               0.3       0.3       1.6       1.9       1.2       1.7
 7 O  px              0.2       0.0       0.6       0.7       1.0       1.4
 7 O  py              0.1       0.7       0.1       0.6       0.0       0.2
 7 O  dz2             0.9       1.1       4.5       4.8       2.8       3.2
 7 O  dx2y2           7.1       3.4       4.3       1.0      18.0       9.1
 7 O  dxy             2.0      15.3       4.0      18.2       0.0       6.5
 8 N  s               0.2       0.4       0.0       0.0       0.0       0.1
 8 N  px              0.0       0.0       0.0       0.4       0.8       0.0
 8 N  py              0.1       0.6       0.0       0.0       0.0       0.1
 8 N  dz2             0.0       0.1       0.2       0.0       0.0       0.1
 8 N  dx2y2           3.9       0.0       2.1       0.4       0.4       7.1
 8 N  dxy             0.8       0.0       0.2       7.1       4.9       0.5
 9 C  s               0.3       0.0       2.3       1.7       1.2       1.0
 9 C  px              0.0       0.1       0.6       0.8       1.3       1.3
 9 C  py              0.2       0.2       0.2       1.4       0.3       0.8
 9 C  dz2             0.1       0.0       0.5       0.2       0.1       0.1
 9 C  dx2y2           4.2       8.7       0.1       7.0       7.0       0.1
 9 C  dxy             0.5       0.2       0.6       1.0       2.8       8.6
10 O  s               0.3       0.0       1.6       2.1       1.4       1.5
10 O  px              0.3       0.1       0.4       0.3       1.2       0.8
10 O  py              0.1       0.3       0.3       1.2       0.1       0.6
10 O  dz2             0.7       0.1       4.7       4.9       3.6       2.8
10 O  dx2y2          11.4      13.6       0.4       4.4      13.0       0.5
10 O  dxy             0.0       1.5       8.6      18.4       7.7      13.3
11 N  s               0.4       0.0       0.0       0.0       0.0       0.0
11 N  px              0.3       0.0       0.1       0.1       0.1       0.1
11 N  py              0.0       0.4       0.2       0.5       0.3       0.0
11 N  dz2             0.2       0.1       0.1       0.0       0.0       0.0
11 N  dx2y2           0.0       2.4       7.4       2.4       0.8       3.4
11 N  dxy             0.7       4.4       2.1       1.3       5.3       4.0
12 C  px              0.0       0.0       0.3       0.0       0.0       0.1
12 C  dx2y2           0.2       0.3       0.0       0.0       0.5       0.3
12 C  dxy             0.0       0.3       1.5       0.1       0.2       0.2
13 C  py              0.1       0.0       0.1       0.0       0.0       0.1
13 C  dz2             0.1       0.0       0.0       0.0       0.0       0.1
13 C  dx2y2           0.4       0.1       0.2       0.0       0.0       0.3
13 C  dxy             0.0       0.0       0.0       1.2       0.2       0.0
14 H  s               0.0       0.1       0.0       0.0       0.0       0.0
14 H  py              0.0       0.1       0.0       0.0       0.0       0.0
17 H  s               2.6       0.9       0.3       0.0       0.0       0.0
17 H  px              0.4       0.0       0.4       0.0       0.0       0.0
17 H  py              2.7       0.9       0.1       0.0       0.0       0.0
18 H  s               0.0       0.0       0.2       0.0       0.0       0.0
18 H  py              0.0       0.0       0.2       0.0       0.0       0.0



                      *****************************
                      * MAYER POPULATION ANALYSIS *
                      *****************************

  NA   - Mulliken gross atomic population
  ZA   - Total nuclear charge
  QA   - Mulliken gross atomic charge
  VA   - Mayer's total valence
  BVA  - Mayer's bonded valence
  FA   - Mayer's free valence

  ATOM       NA         ZA         QA         VA         BVA        FA
  0 C      5.8630     6.0000     0.1370     3.8925     3.8925    -0.0000
  1 N      7.1891     7.0000    -0.1891     3.5179     3.5179    -0.0000
  2 C      5.8674     6.0000     0.1326     3.9803     3.9803    -0.0000
  3 N      7.1978     7.0000    -0.1978     3.0789     3.0789     0.0000
  4 C      5.9313     6.0000     0.0687     4.0770     4.0770     0.0000
  5 C      6.0067     6.0000    -0.0067     3.6849     3.6849     0.0000
  6 C      5.8195     6.0000     0.1805     4.2399     4.2399     0.0000
  7 O      8.2736     8.0000    -0.2736     2.2807     2.2807     0.0000
  8 N      7.3364     7.0000    -0.3364     3.1778     3.1778    -0.0000
  9 C      5.7294     6.0000     0.2706     4.2685     4.2685     0.0000
 10 O      8.3087     8.0000    -0.3087     2.2162     2.2162    -0.0000
 11 N      7.2526     7.0000    -0.2526     3.2778     3.2778    -0.0000
 12 C      5.8549     6.0000     0.1451     3.8885     3.8885    -0.0000
 13 C      5.8495     6.0000     0.1505     3.9072     3.9072     0.0000
 14 H      0.9421     1.0000     0.0579     0.9959     0.9959    -0.0000
 15 H      0.9429     1.0000     0.0571     0.9972     0.9972    -0.0000
 16 H      0.9429     1.0000     0.0571     0.9972     0.9972    -0.0000
 17 H      0.9442     1.0000     0.0558     1.0006     1.0006     0.0000
 18 H      0.9550     1.0000     0.0450     1.0333     1.0333    -0.0000
 19 H      0.9546     1.0000     0.0454     0.9975     0.9975    -0.0000
 20 H      0.9547     1.0000     0.0453     0.9975     0.9975    -0.0000
 21 H      0.9620     1.0000     0.0380     1.0349     1.0349    -0.0000
 22 H      0.9609     1.0000     0.0391     0.9993     0.9993    -0.0000
 23 H      0.9609     1.0000     0.0391     0.9993     0.9993    -0.0000

  Mayer bond orders larger than 0.100000
B(  0-C ,  1-N ) :   0.9444 B(  0-C , 14-H ) :   0.9667 B(  0-C , 15-H ) :   0.9690 
B(  0-C , 16-H ) :   0.9690 B(  1-N ,  2-C ) :   1.3025 B(  1-N ,  5-C ) :   1.1541 
B(  2-C ,  3-N ) :   1.5096 B(  2-C , 17-H ) :   0.9737 B(  3-N ,  4-C ) :   1.4367 
B(  4-C ,  5-C ) :   1.3470 B(  4-C , 11-N ) :   1.1144 B(  5-C ,  6-C ) :   1.0495 
B(  6-C ,  7-O ) :   2.0531 B(  6-C ,  8-N ) :   1.0447 B(  8-N ,  9-C ) :   1.0629 
B(  8-N , 13-C ) :   0.9431 B(  9-C , 10-O ) :   1.9740 B(  9-C , 11-N ) :   1.1016 
B( 11-N , 12-C ) :   0.9387 B( 12-C , 18-H ) :   0.9565 B( 12-C , 19-H ) :   0.9727 
B( 12-C , 20-H ) :   0.9727 B( 13-C , 21-H ) :   0.9506 B( 13-C , 22-H ) :   0.9728 
B( 13-C , 23-H ) :   0.9728 

-------
TIMINGS
-------

Total SCF time: 0 days 0 hours 3 min 55 sec 

Total time                  ....     235.676 sec
Sum of individual times     ....     234.654 sec  ( 99.6%)

Fock matrix formation       ....     226.635 sec  ( 96.2%)
  Split-RI-J                ....      12.195 sec  (  5.4% of F)
  Chain of spheres X        ....     176.909 sec  ( 78.1% of F)
  XC integration            ....      22.001 sec  (  9.7% of F)
    Basis function eval.    ....       8.803 sec  ( 40.0% of XC)
    Density eval.           ....       5.890 sec  ( 26.8% of XC)
    XC-Functional eval.     ....       1.314 sec  (  6.0% of XC)
    XC-Potential eval.      ....       5.149 sec  ( 23.4% of XC)
Diagonalization             ....       0.071 sec  (  0.0%)
Density matrix formation    ....       0.011 sec  (  0.0%)
Population analysis         ....       0.264 sec  (  0.1%)
Initial guess               ....       0.015 sec  (  0.0%)
Orbital Transformation      ....       0.000 sec  (  0.0%)
Orbital Orthonormalization  ....       0.009 sec  (  0.0%)
DIIS solution               ....       0.003 sec  (  0.0%)
SOSCF solution              ....       0.062 sec  (  0.0%)
Grid generation             ....       7.593 sec  (  3.2%)

Maximum memory used throughout the entire SCF-calculation: 100.0 MB

-------------------------   --------------------
FINAL SINGLE POINT ENERGY      -679.523915764605
-------------------------   --------------------

                                *** OPTIMIZATION RUN DONE ***

                            ***************************************
                            *     ORCA property calculations      *
                            ***************************************

                                    ---------------------
                                    Active property flags
                                    ---------------------
   (+) Dipole Moment


------------------------------------------------------------------------------
                       ORCA ELECTRIC PROPERTIES CALCULATION
------------------------------------------------------------------------------

Dipole Moment Calculation                       ... on
Quadrupole Moment Calculation                   ... off
Polarizability Calculation                      ... off
GBWName                                         ... Caffeine_DFT.gbw
Electron density                                ... Caffeine_DFT.scfp
SHARK General Contraction Test:  Segmented basis detected
   -> Pre-screening matrix found on disk - Trying to read with NShells=114
   -> Passing Pre-screening matrix on to SHARK ...ok
   -> Leaving CheckPreScreeningMatrix
----------------------
SHARK INTEGRAL PACKAGE
----------------------

Number of atoms                             ...     24
Number of basis functions                   ...    246
Number of shells                            ...    114
Maximum angular momentum                    ...      2
Integral batch strategy                     ... SHARK/LIBINT Hybrid
RI-J (if used) integral strategy            ... SPLIT-RIJ (Revised 2003 algorithm where possible)
Printlevel                                  ...      2
Contraction scheme used                     ... SEGMENTED contraction
Coulomb Range Separation                    ... NOT USED
Exchange Range Separation                   ... NOT USED
Finite Nucleus Model                        ... NOT USED
Auxiliary Coulomb fitting basis             ... AVAILABLE
   # of basis functions in Aux-J            ...    796
   # of shells in Aux-J                     ...    260
   Maximum angular momentum in Aux-J        ...      4
Auxiliary J/K fitting basis                 ... NOT available
Auxiliary Correlation fitting basis         ... NOT available
Auxiliary 'external' fitting basis          ... NOT available
Integral threshold                          ...     2.500000e-11
Primitive cut-off                           ...     2.500000e-12
Primitive pair pre-selection threshold      ...     2.500000e-12

The origin for moment calculation is the CENTER OF MASS  = ( 7.674302, -2.977550 -0.136226)

-------------
DIPOLE MOMENT
-------------
                                X             Y             Z
Electronic contribution:      0.53910       0.83745      -0.00139
Nuclear contribution   :     -1.62210       0.90330      -0.00079
                        -----------------------------------------
Total Dipole Moment    :     -1.08300       1.74075      -0.00218
                        -----------------------------------------
Magnitude (a.u.)       :      2.05015
Magnitude (Debye)      :      5.21107



--------------------
Rotational spectrum 
--------------------
 
Rotational constants in cm-1:     0.035308     0.023387     0.014183 
Rotational constants in MHz :  1058.502408   701.119996   425.184388 

 Dipole components along the rotational axes: 
x,y,z [a.u.] :     2.014246     0.382005    -0.000102 
x,y,z [Debye]:     5.119806     0.970979    -0.000260 

 

Timings for individual modules:

Sum of individual times         ...     3463.992 sec (=  57.733 min)
GTO integral calculation        ...        5.850 sec (=   0.098 min)   0.2 %
SCF iterations                  ...     2760.212 sec (=  46.004 min)  79.7 %
SCF Gradient evaluation         ...      697.183 sec (=  11.620 min)  20.1 %
Geometry relaxation             ...        0.746 sec (=   0.012 min)   0.0 %
                             ****ORCA TERMINATED NORMALLY****
TOTAL RUN TIME: 0 days 0 hours 57 minutes 46 seconds 713 msec
